BEGIN_CFG
 Size
   1
 Supercell
     3.196219   0.000000   0.000000
     0.162465   3.283453   0.000000
     1.682343   1.712820   1.577786
 AtomData: id type    cartes_x   cartes_y   cartes_z      fx     fy     fz
       1  0    0.000000   0.000000   0.000000   0.000000  0.000000  0.000000
 Energy
    -11.139789769370
 PlusStress: xx     yy     zz     yz     xz     xy
    10.95895  23.13698   3.85028   9.58745  -1.54908  11.56317
 Feature  config_type slice_sample
END_CFG

BEGIN_CFG
 Size
  128
 Supercell
    12.721996   0.000000   0.000000
     0.000000   12.721996   0.000000
     0.000000   0.000000   12.721996
 AtomData: id type    cartes_x   cartes_y   cartes_z      fx     fy     fz
       1  0    0.026304   -0.015040   0.027686  -0.474258  0.154553  -0.339909
       2  0    1.601114   1.610195   1.579295  -0.081768  -0.561989  0.284181
       3  0   -0.044720   0.010109   3.216386   0.867872  -0.135653  -0.633985
       4  0    1.572465   1.574209   4.763255   0.420445  -0.085342  0.284247
       5  0   -0.010234   0.024711   6.366440   0.135558  -0.503241  0.034319
       6  0    1.602582   1.605699   7.982003  -0.535800  -0.281461  -0.562332
       7  0   -0.004403   -0.004553   9.533919  -0.142506  0.018423  0.233477
       8  0    1.592122   1.565779   11.124884  -0.213653  0.532689  0.139784
       9  0    0.024631   3.193946   -0.006510  -0.521834  -0.083563  0.051404
      10  0    1.597313   4.749303   1.590237  -0.070400  0.305079  0.198653
      11  0    0.019191   3.165875   3.200410  -0.392353  0.350763  -0.329511
      12  0    1.558415   4.750728   4.790807   0.714524  0.092244  -0.386046
      13  0    0.016929   3.157756   6.340416  -0.365048  0.397520  0.542873
      14  0    1.585292   4.776276   7.945606   0.007997  -0.093245  0.141569
      15  0   -0.020918   3.180945   9.545509   0.172822  -0.111699  -0.111448
      16  0    1.591419   4.802076   11.108367   0.096009  -0.575356  0.319922
      17  0    0.034630   6.347453   0.020156  -0.337762  0.126750  -0.348369
      18  0    1.594920   7.960731   1.567670  -0.082052  -0.394513  0.426167
      19  0    0.016610   6.359115   3.186571  -0.279285  0.127446  0.124593
      20  0    1.597210   7.930864   4.787812  -0.247576  0.319117  -0.410679
      21  0    0.039266   6.345994   6.361206  -0.727770  0.221042  0.210793
      22  0    1.585036   7.940395   7.952055   0.344913  0.157388  0.095042
      23  0    0.012313   6.349964   9.562035  -0.052532  0.298237  -0.552733
      24  0    1.628435   7.965270   11.099112  -0.531577  -0.192824  0.514582
      25  0   -0.000030   9.519271   0.032282   0.112521  0.227390  -0.706522
      26  0    1.599812   11.091489   1.587708  -0.310575  0.843789  0.209191
      27  0    0.008210   9.551749   3.166314  -0.253785  -0.387043  0.408937
      28  0    1.598648   11.106708   4.808386  -0.187134  0.486818  -0.604309
      29  0   -0.014616   9.549622   6.343350   0.176679  0.006143  0.303554
      30  0    1.600143   11.126763   7.932607  -0.321492  0.001635  0.375457
      31  0    0.007265   9.546387   9.546717  -0.046165  -0.083220  -0.120173
      32  0    1.597026   11.162093   11.129652  -0.081987  -0.707199  0.004739
      33  0    3.160930   -0.014967   0.010982   0.427672  0.200752  -0.192011
      34  0    4.770137   1.603778   1.604721   0.181059  -0.186238  -0.361508
      35  0    3.183389   0.009085   3.177186  -0.355611  -0.318996  0.091579
      36  0    4.769327   1.567782   4.791547   0.033199  0.470242  -0.231182
      37  0    3.183534   -0.004039   6.391087  -0.091745  -0.036324  -0.509641
      38  0    4.762592   1.613588   7.955777   0.350383  -0.136363  0.120343
      39  0    3.139684   0.006006   9.515439   0.749905  -0.119607  0.614231
      40  0    4.763648   1.564216   11.155938   0.099025  0.571533  -0.417493
      41  0    3.150958   3.201110   -0.002255   0.683246  -0.448356  -0.172011
      42  0    4.760182   4.773344   1.600047  -0.062241  -0.330114  -0.169608
      43  0    3.197365   3.127552   3.181656  -0.324574  0.854711  0.172179
      44  0    4.739536   4.802225   4.743135   0.332625  -0.856826  0.534870
      45  0    3.166241   3.164630   6.384300   0.258813  0.262247  -0.578930
      46  0    4.732252   4.770071   7.936263   0.704081  -0.039862  0.015172
      47  0    3.152927   3.172734   9.522136   0.532297  0.110978  0.543650
      48  0    4.784576   4.752192   11.116285  -0.207948  0.162342  0.234973
      49  0    3.175271   6.345737   0.002090   0.196655  0.151446  -0.008855
      50  0    4.751701   7.919499   1.634868   0.195412  0.571806  -0.839349
      51  0    3.168877   6.347702   3.177418  -0.247914  0.027278  0.087490
      52  0    4.735230   7.945594   4.748293   0.361630  0.241266  0.458510
      53  0    3.199469   6.372596   6.357946  -0.352016  -0.315043  0.168570
      54  0    4.822483   7.939856   7.946238  -0.598287  0.136176  0.075213
      55  0    3.221177   6.343968   9.565828  -0.483919  0.256078  -0.592907
      56  0    4.750575   7.938683   11.142730   0.756742  0.001990  0.007534
      57  0    3.181343   9.530285   -0.005596   0.230628  0.138787  -0.002261
      58  0    4.761612   11.126025   1.603198   0.116781  -0.011554  -0.494508
      59  0    3.148720   9.558511   3.167033   0.376791  -0.467243  0.336181
      60  0    4.755400   11.126771   4.719464   0.204967  0.066012  1.129603
      61  0    3.175973   9.525873   6.378698   0.173297  0.181809  -0.218449
      62  0    4.749500   11.137500   7.999187   0.590553  -0.041791  -1.039703
      63  0    3.212573   9.519526   9.543413  -0.509105  0.262250  -0.115761
      64  0    4.773936   11.131229   11.096558  -0.080749  0.004365  0.750673
      65  0    6.340162   0.014166   -0.002688   0.261145  -0.216144  -0.141235
      66  0    7.968450   1.576309   1.545477  -0.205893  0.214727  0.790061
      67  0    6.359364   -0.008636   3.166396   0.019036  0.122421  0.097657
      68  0    7.956998   1.557875   4.751704  -0.264127  0.638378  0.116448
      69  0    6.342591   0.052215   6.361673   0.209519  -0.951911  0.053130
      70  0    7.966045   1.604072   7.951520  -0.205192  -0.060263  -0.073547
      71  0    6.379303   0.009247   9.537240  -0.243671  0.205581  0.064546
      72  0    7.978746   1.617988   11.141300  -0.616600  -0.601239  -0.304680
      73  0    6.388588   3.224929   -0.004085  -0.902540  -0.876990  -0.010081
      74  0    7.913854   4.776882   1.564822   0.624173  0.132782  0.720108
      75  0    6.368399   3.175055   3.180327  -0.096588  0.058546  -0.000893
      76  0    7.978588   4.802334   4.769511  -0.684401  -0.455324  -0.141347
      77  0    6.382238   3.207935   6.343592  -0.465656  -0.242813  0.058222
      78  0    7.951221   4.759949   7.947504   0.054410  0.419993  -0.151443
      79  0    6.392026   3.229535   9.531009  -0.715091  -0.972233  0.083028
      80  0    7.949461   4.758613   11.126714   0.151275  0.595740  0.002786
      81  0    6.342677   6.338164   0.023480   0.157656  0.568664  -0.358022
      82  0    7.956916   7.947256   1.610200  -0.231374  0.043797  -0.095808
      83  0    6.322517   6.361498   3.195443   0.653532  -0.019986  -0.211771
      84  0    7.944138   7.934161   4.777970  -0.106194  0.369478  -0.114215
      85  0    6.352484   6.364639   6.345894   0.188276  -0.034608  0.129381
      86  0    7.979858   7.978412   7.933406  -0.433193  -0.465454  0.333998
      87  0    6.388246   6.337863   9.512346  -0.174207  0.563373  0.434317
      88  0    7.960561   7.938589   11.165516  -0.294793  -0.307169  -0.710427
      89  0    6.380666   9.546959   -0.000828  -0.602920  -0.243279  0.209547
      90  0    7.934166   11.148228   1.573505   0.356848  -0.387098  0.104465
      91  0    6.346770   9.531469   3.203256   0.200984  0.046614  -0.525094
      92  0    7.965425   11.115952   4.763779  -0.628101  0.376485  -0.107401
      93  0    6.352121   9.528477   6.340659  -0.120198  0.507280  0.288298
      94  0    7.976848   11.146985   7.934167  -0.652261  0.014942  0.212128
      95  0    6.354134   9.554705   9.553314   0.225540  -0.417610  -0.327801
      96  0    7.938477   11.083258   11.097027   0.258678  0.926963  0.573694
      97  0    9.548083   -0.003140   -0.011796   0.046324  -0.158228  0.247863
      98  0   11.182211   1.629768   1.561965  -0.894017  -0.446206  0.506181
      99  0    9.535756   -0.001712   3.211759   0.102011  0.236996  -0.864680
      100  0   11.128458   1.616882   4.784376  -0.181858  -0.298819  -0.383264
      101  0    9.523971   -0.000871   6.348230   0.244241  0.214665  0.288666
      102  0   11.131990   1.577392   7.921013  -0.098155  0.380307  0.545715
      103  0    9.557145   0.026371   9.560880  -0.151737  -0.450677  -0.278971
      104  0   11.122981   1.605182   11.140662   0.329296  -0.167531  -0.070533
      105  0    9.486098   3.189714   0.002357   1.285718  0.145668  0.161918
      106  0   11.132997   4.804472   1.637501  -0.075966  -0.572980  -0.614921
      107  0    9.515789   3.194390   3.193555   0.517218  -0.096838  -0.449148
      108  0   11.131016   4.777966   4.786284   0.032067  0.002328  -0.156132
      109  0    9.529729   3.191401   6.331584   0.279424  -0.129709  0.549634
      110  0   11.130173   4.754889   7.954134   0.050201  0.225925  -0.100073
      111  0    9.519083   3.197074   9.565400   0.621288  -0.266375  -0.510895
      112  0   11.142270   4.778031   11.127905  -0.107576  -0.161749  0.295655
      113  0    9.558292   6.359168   -0.012943  -0.244467  -0.252756  0.287625
      114  0   11.126997   7.925655   1.546915   0.168756  0.471032  0.961894
      115  0    9.539610   6.387760   3.196287   0.038061  -0.279176  -0.207795
      116  0   11.110721   7.960221   4.820239   0.391250  -0.026844  -0.991914
      117  0    9.534315   6.362177   6.383597   0.335535  0.177763  -0.220433
      118  0   11.153146   7.998136   7.907802  -0.266102  -0.687577  0.839220
      119  0    9.566364   6.347503   9.534997  -0.147147  0.385014  -0.020912
      120  0   11.167301   7.925188   11.140030  -0.330497  0.301967  -0.324976
      121  0    9.526073   9.493767   -0.027012   0.371389  0.715161  0.570624
      122  0   11.133841   11.130591   1.605228  -0.170294  0.014809  -0.242418
      123  0    9.557543   9.558227   3.189235  -0.304606  -0.339181  -0.383379
      124  0   11.132660   11.151183   4.755965   0.053402  -0.185682  0.333325
      125  0    9.498589   9.595600   6.328887   0.730997  -0.736424  0.536277
      126  0   11.125850   11.138407   7.949713   0.041315  0.016830  0.066390
      127  0    9.509779   9.520563   9.544419   0.787069  0.273491  -0.199698
      128  0   11.147411   11.104191   11.157506  -0.204892  0.306727  -0.362952
 Energy
   -1431.629494590219
 Feature  config_type md_bulk
END_CFG
