BEGIN_CFG
 Size
   1
 Supercell
     3.196219   0.000000   0.000000
     0.162465   3.283453   0.000000
     1.682343   1.712820   1.577786
 AtomData: id type    cartes_x   cartes_y   cartes_z      fx     fy     fz
       1  0    0.000000   0.000000   0.000000   0.000000  0.000000  0.000000
 Energy
    -11.139789769370
 PlusStress: xx     yy     zz     yz     xz     xy
    10.95895  23.13698   3.85028   9.58745  -1.54908  11.56317
 Feature  config_type smoke_test
END_CFG
