8
Properties=species:S:1:pos:R:3:tags:I:1:momenta:R:3:forces:R:3:charge:R:1 energy=-199.6328145993753 dipole="-5.6657486750822305e-15 1.3953237177778663e-15 1.6597008432515673e-15" pbc="F F F"
C        0.76071417       0.00000016      -0.00000000        0      -0.02219996      -0.12216101       0.54547757      -0.00004327      -0.00002841       0.00000000      -0.09690795
C       -0.76071417      -0.00000016      -0.00000000        0       0.33211512      -0.62982845      -0.59831535       0.00004327       0.00002841      -0.00000000      -0.09690795
H        1.14363421       1.01813030      -0.00000000        0       0.00452386      -0.01266783       0.00797138      -0.00007121      -0.00001861      -0.00000000       0.03230267
H        1.14362787      -0.50906862       0.88172558        0      -0.15381775       0.18034133       0.13624048      -0.00003330       0.00000188       0.00003514       0.03230264
H        1.14362787      -0.50906862      -0.88172558        0      -0.00545392       0.22035002       0.08615236      -0.00003330       0.00000188      -0.00003514       0.03230264
H       -1.14363421      -1.01813030      -0.00000000        0      -0.15482644       0.09790888      -0.14410639       0.00007121       0.00001861       0.00000000       0.03230267
H       -1.14362787       0.50906862      -0.88172558        0       0.12569287       0.03032298      -0.01915831       0.00003330      -0.00000188      -0.00003514       0.03230264
H       -1.14362787       0.50906862       0.88172558        0      -0.12603377       0.23573407      -0.01426175       0.00003330      -0.00000188       0.00003514       0.03230264
8
Properties=species:S:1:pos:R:3:tags:I:1:momenta:R:3:forces:R:3:charge:R:1 energy=-199.5590904495921 dipole="-0.0021655229311534833 0.019547110333316534 -0.001990344348041437" pbc="F F F"
C        0.75173408       0.00284601       0.04877352        0       0.19118690      -0.02232475       0.57707916       0.56744985      -0.42199039       0.61304941      -0.09417962
C       -0.75368215      -0.01430628      -0.04572455        0      -0.40230637       0.17914639      -0.95441190      -0.13512151       0.12284800      -0.98363914      -0.09745155
H        1.12101596       1.02083220       0.05893852        0      -0.14573705       0.05603479       0.07864387      -0.05364304       0.26876882      -0.13304311       0.03234794
H        1.09676215      -0.42865013       1.00811450        0       0.09476968      -0.01177487       0.02664304      -0.08801930      -0.15183737      -0.65396677       0.02746226
H        1.19745640      -0.49774392      -0.81687070        0       0.10564160      -0.11818061       0.31824672      -0.00086727      -0.08942577       0.41623249       0.03299939
H       -1.21596523      -1.00633160      -0.06778723        0       0.10327139      -0.01750573      -0.10213315       0.38465175       0.14838489      -0.03477374       0.03191798
H       -0.99156631       0.51353727      -0.97790512        0       0.18662926      -0.10593132      -0.09096482      -0.33623930      -0.23412378       0.16305700       0.03108265
H       -1.18449033       0.53491307       0.75917956        0      -0.13345541       0.04053609       0.14689709      -0.33821118       0.35737560       0.61308387       0.03582094
8
Properties=species:S:1:pos:R:3:tags:I:1:momenta:R:3:forces:R:3:charge:R:1 energy=-199.52168158977656 dipole="-0.00318034099527645 0.0022179726643858796 -0.0021406870320228306" pbc="F F F"
C        0.76243681       0.00295866       0.13006393        0      -0.04894315      -0.01952259       0.92959310      -0.11567436       0.26162983      -0.70991994      -0.09550995
C       -0.76535176       0.00174240      -0.11737526        0       0.28745315      -0.02637589      -0.95709979       0.87840382      -1.30955054      -0.96711750      -0.09791748
H        1.07940645       1.04478496       0.03195368        0       0.20922774      -0.02359548      -0.03465609       0.27414394      -0.22068140       0.33890078       0.03329434
H        1.10226505      -0.43920535       1.07650138        0      -0.19499795       0.10994421       0.12658046      -0.55132707       0.39709672      -0.17340395       0.03321695
H        1.29375163      -0.56774418      -0.65192255        0      -0.00041095       0.02709626       0.02986797      -0.40986341       0.23879024       0.16544398       0.02796965
H       -1.09325261      -1.04450975      -0.15966713        0       0.08697189       0.00763272      -0.03767834      -0.10867023       0.21891842       0.01505081       0.02867483
H       -1.03163240       0.46096357      -1.08621600        0      -0.12093999      -0.06053957       0.01201489       0.38034210      -0.15899125       0.44716778       0.03041812
H       -1.31580449       0.48969449       0.63815654        0      -0.21836073      -0.01463965      -0.06862219      -0.34735478       0.57278797       0.88387804       0.03985355
8
Properties=species:S:1:pos:R:3:tags:I:1:momenta:R:3:forces:R:3:charge:R:1 energy=-199.53203734860028 dipole="-0.003456349664325822 -0.005721032922284287 0.010605978570063776" pbc="F F F"
C        0.73926090       0.02571733       0.15674227        0      -0.28669356       0.45229253       0.10938879       0.16813292      -0.77192408       0.82608153      -0.09632721
C       -0.74203038      -0.01662840      -0.16248382        0       0.18924439      -0.13586023      -0.33606588       0.42824752       0.08276863      -1.16824082      -0.09810596
H        1.22519241       0.99017717       0.14836819        0       0.02978037       0.07988974       0.14782775      -0.28159103       0.35496165      -0.17303605       0.03238482
H        0.82350576      -0.35747186       1.19660663        0      -0.27704711      -0.03535145       0.04366764       0.38089177       0.00449607      -0.67478289       0.02821308
H        1.26737176      -0.62286041      -0.54804794        0       0.06823823      -0.18421539       0.20221574       0.06207312       0.06514948       0.32717660       0.03235373
H       -1.03791174      -1.06538961      -0.18731262        0      -0.02656185      -0.10885652      -0.10085967      -0.15281018       0.16112685      -0.23902719       0.03564294
H       -0.93807750       0.48057642      -1.13232965        0       0.32583867      -0.04671756      -0.08379297      -0.05412700      -0.44277944       0.45698506       0.02868063
H       -1.30708049       0.46666751       0.59112985        0      -0.02279916      -0.02118112       0.01761859      -0.55081710       0.54620083       0.64484375       0.03715797
8
Properties=species:S:1:pos:R:3:tags:I:1:momenta:R:3:forces:R:3:charge:R:1 energy=-199.5114556908504 dipole="-0.004835432887317515 -0.006191718109160497 0.02476295470142125" pbc="F F F"
C        0.73429111       0.02446349       0.19712167        0      -0.30909086      -0.39330189       0.98035605      -0.49654291      -1.07812899       1.08111552      -0.09954474
C       -0.72564181      -0.01705274      -0.20591883        0       0.24232299       0.23558593      -0.81600721       0.18849158       0.17618063      -1.97726961      -0.09588650
H        1.09368683       1.03018787       0.21974586        0      -0.09702715       0.05689982      -0.00132506       0.38964897       0.37784753      -0.10915305       0.04002353
H        0.72778829      -0.39017601       1.21484882        0       0.18349521      -0.03031563       0.18248607       0.34901334       0.35122240       0.05871116       0.02976364
H        1.38149137      -0.65888954      -0.34566220        0       0.14367246       0.08079850       0.01449255      -0.09814923       0.34985353      -0.48039580       0.03397883
H       -1.08703478      -1.03224623      -0.25419575        0      -0.08576207       0.00869235      -0.09103036      -0.06473653      -0.30186515      -0.01746713       0.03272964
H       -0.89626293       0.44469092      -1.21589430        0      -0.11398636      -0.09673779      -0.15919178       0.21377628      -0.39549732       0.78011192       0.02100956
H       -1.32273104       0.51812887       0.48598160        0       0.03637579       0.13837870      -0.10978026      -0.48150151       0.52038737       0.66434699       0.03792604
8
Properties=species:S:1:pos:R:3:tags:I:1:momenta:R:3:forces:R:3:charge:R:1 energy=-199.4991400936404 dipole="-0.001227521368272926 0.019669563506619626 0.0026205624572686265" pbc="F F F"
C        0.71753297      -0.00023815       0.28003898        0      -0.00018634       0.09564354       0.45747520       0.11757778      -0.01737979      -1.25252372      -0.09883490
C       -0.72162387      -0.01179773      -0.27338561        0      -0.09326866      -0.05967072      -0.39451097       0.74698250      -0.09557470      -0.07883534      -0.10008931
H        1.07918254       1.00546962       0.23898642        0      -0.04201149      -0.01675302       0.23067849       0.08354714       0.87907839       0.23123157       0.03243873
H        0.83251385      -0.33921957       1.30983349        0      -0.03156001      -0.04163502       0.10438465      -0.26180487      -0.28800521      -0.39489694       0.03642632
H        1.39909758      -0.50511405      -0.42407430        0      -0.03358815       0.00674825      -0.10539601      -0.31739232      -0.42045557       0.56389447       0.02859401
H       -1.14336676      -0.99911442      -0.27343891        0       0.00394999       0.03494220       0.08805479      -0.08632005      -0.49533089       0.07302464       0.03379727
H       -0.81829499       0.37565484      -1.29843800        0       0.27028243       0.03773956      -0.20201482       0.42020944      -0.06573125       0.39679401       0.03034755
H       -1.30038640       0.60573919       0.36785192        0      -0.07361778      -0.05701479      -0.17867132      -0.70279961       0.50339901       0.46131132       0.03732034
8
Properties=species:S:1:pos:R:3:tags:I:1:momenta:R:3:forces:R:3:charge:R:1 energy=-199.5383740337668 dipole="-0.0004826562414972438 -0.0017473080771775956 -0.00727699602966295" pbc="F F F"
C        0.70086959       0.02586478       0.29147314        0      -0.50222798       0.35978378       0.25127399      -0.24134840      -1.02057105       0.80363096      -0.09782065
C       -0.70636532      -0.01922843      -0.29154815        0       0.36943934      -0.00946837       0.26594880       0.93169542       0.32786267      -0.24007825      -0.10434524
H        1.04543265       1.04018252       0.42505717        0      -0.05113531      -0.06895269       0.02024118       0.19608139       0.08684054      -0.23412000       0.03633426
H        0.71394862      -0.46299358       1.27806776        0      -0.12439980      -0.11965251      -0.00261862       0.05057097       0.20899999      -0.19102263       0.02438326
H        1.34494537      -0.57397852      -0.35769376        0       0.05423232      -0.00413701       0.05843428       0.14525504       0.43251945       0.14425063       0.03306788
H       -1.09058689      -1.01754896      -0.29336916        0       0.10143283       0.00703543      -0.19228083      -0.13040347      -0.55031526      -0.14634652       0.03571002
H       -0.55287612       0.33914529      -1.30034159        0       0.10644918      -0.05189210      -0.18949719      -0.68795471       0.06910603      -0.32568722       0.03769241
H       -1.39537830       0.59611666       0.24917334        0       0.04620942      -0.11271653      -0.21150159      -0.26389624       0.44555762       0.18937303       0.03497806
8
Properties=species:S:1:pos:R:3:tags:I:1:momenta:R:3:forces:R:3:charge:R:1 energy=-199.56563763297595 dipole="0.0019438837245080083 0.0013468977053101509 -0.010638494837204795" pbc="F F F"
C        0.67719026       0.02366544       0.33964873        0      -0.04461434      -0.02626983       0.55493279       0.30537508       0.13880513       0.04796295      -0.09507122
C       -0.67530568      -0.02629464      -0.33383261        0      -0.02982004      -0.11114384      -0.82887623      -0.49387273       0.23860650       0.04684096      -0.09696632
H        1.01216055       1.04849348       0.40596657        0      -0.02421583       0.00235214       0.05934989      -0.01544521       0.35582076       0.33739305       0.03265111
H        0.63306523      -0.42732383       1.33960816        0      -0.00618751       0.10852420       0.22638374       0.05636012       0.21217040      -0.34200034       0.03358927
H        1.45890998      -0.46490666      -0.24388682        0       0.11022644       0.08240666       0.10429107      -0.27125923      -0.33649899       0.01706188       0.03137195
H       -1.03280089      -1.03539111      -0.35968462        0       0.01865811       0.08132112       0.12399090      -0.34003028      -0.57741343       0.19906132       0.03400626
H       -0.66847166       0.29387914      -1.35943905        0      -0.11699868       0.05194288      -0.18109688       0.42609430       0.27861430      -0.50923552       0.03105970
H       -1.42531923       0.61657759       0.14813281        0       0.09295185      -0.18913334      -0.05897528       0.33277796      -0.31010465       0.20291569       0.02935926
8
Properties=species:S:1:pos:R:3:tags:I:1:momenta:R:3:forces:R:3:charge:R:1 energy=-199.5352392433219 dipole="-0.004335701996041946 -0.00483985678277875 0.007482244860566148" pbc="F F F"
C        0.67557011       0.04640741       0.36863450        0      -0.10307781       0.64554821       0.00932592      -0.29830546      -0.30244924      -0.26397417      -0.09832242
C       -0.67189981      -0.04677217      -0.38852216        0      -0.10473266      -0.25356188       0.14980164      -0.06392206       0.71852447       2.42359005      -0.10056989
H        0.96806025       1.08065061       0.50851339        0      -0.02337752      -0.05370300      -0.03712709       0.16550556       0.06901600      -0.25418830       0.03307831
H        0.59257672      -0.38107233       1.36885424        0      -0.12078788      -0.13830548       0.07021966      -0.16253173      -0.05819163      -0.11177353       0.02988246
H        1.45237737      -0.51892320      -0.15638902        0       0.01275946      -0.14964019       0.00524968      -0.11551174       0.30550627       0.04071508       0.03106928
H       -1.03713041      -1.04997572      -0.30151087        0       0.11996277       0.10386413      -0.16532401      -0.09575234      -0.55754823      -0.45331141       0.03770323
H       -0.61317354       0.30952276      -1.38704854        0       0.19529501      -0.07978842       0.02479065       0.04668370       0.11001299      -0.61356815       0.04261023
H       -1.40644446       0.56414425       0.20455563        0       0.02395863      -0.07441336      -0.05693645       0.52383407      -0.28487063      -0.76748958       0.02454880
8
Properties=species:S:1:pos:R:3:tags:I:1:momenta:R:3:forces:R:3:charge:R:1 energy=-199.47201286745445 dipole="0.009049502199057974 -0.012728931075577444 -0.01362960265189806" pbc="F F F"
C        0.64866836       0.05388883       0.37032830        0      -0.40523870      -0.11749281       0.00313078       0.89969759       0.47222092      -0.39825631      -0.09580589
C       -0.64567551      -0.05300196      -0.35431840        0       0.27319424      -0.08300644      -0.05823282      -1.64010375       0.69184389      -0.57692780      -0.09261898
H        1.00032201       1.09866066       0.46815916        0      -0.06156238      -0.09200084      -0.02115565      -0.36736399      -0.53663765       0.15847816       0.03089106
H        0.50928253      -0.41946641       1.30644776        0       0.05381911       0.05722316       0.19540928       0.33200971      -0.16918905       1.12928933       0.04183916
H        1.43146332      -0.47546616      -0.18911669        0       0.07626668       0.02852048      -0.11940477      -0.18687492       0.02592953       0.19026455       0.03088049
H       -0.97162276      -1.08021085      -0.48536499        0       0.14609517       0.21266829      -0.03699762      -0.12129162      -0.12817232       0.48256787       0.03190432
H       -0.51303270       0.29123776      -1.35580473        0       0.01927371       0.02712419       0.14840107       0.05068599       0.50202117      -0.87124933       0.03005039
H       -1.49207427       0.57467745       0.06491065        0      -0.10184782      -0.03303603      -0.11115027       1.03324100      -0.85801649      -0.11416648       0.02285945
8
Properties=species:S:1:pos:R:3:tags:I:1:momenta:R:3:forces:R:3:charge:R:1 energy=-199.4627570856981 dipole="0.01036916259869687 -0.009636208307012463 0.0002143501644562086" pbc="F F F"
C        0.64340521       0.03333842       0.40236584        0       0.09158905       0.12905360       0.75728926       0.39149727       1.92757133      -1.19014267      -0.09905612
C       -0.65085498      -0.03969491      -0.40727472        0      -0.04373219      -0.11015174      -1.12995432      -0.55994928      -0.26812563       1.63161351      -0.09602672
H        0.91115910       1.11008143       0.56111006        0      -0.11356906      -0.01765428       0.06508555       0.07114734      -0.74134431      -0.44079615       0.02152492
H        0.61561543      -0.34741457       1.37454879        0       0.02296454      -0.03024642       0.01057754      -0.41918801      -0.97913295       1.25576815       0.03826305
H        1.42410308      -0.47207893      -0.17141611        0       0.16901820      -0.11238843       0.00863016       0.02334151       0.22357160       0.22844544       0.03322280
H       -0.90152869      -1.10767682      -0.44646559        0      -0.07369839       0.22999266      -0.02750516      -0.24572989       0.40928471      -0.44419053       0.03505564
H       -0.45796900       0.39247697      -1.36984500        0       0.01316179      -0.03153665       0.13357880      -0.26348653      -0.02481049      -0.38914677       0.04262272
H       -1.50261089       0.50035375       0.11056039        0      -0.06573394      -0.05706872       0.18229816       1.00236760      -0.54701426      -0.65155098       0.02439370
8
Properties=species:S:1:pos:R:3:tags:I:1:momenta:R:3:forces:R:3:charge:R:1 energy=-199.49576671683982 dipole="0.006497214900101286 -0.012110629135604817 0.003707642670048509" pbc="F F F"
C        0.64274661       0.04217351       0.43167186        0      -0.41608949      -0.05806786       0.11391700      -0.52995596       1.27867544      -0.92564207      -0.09882824
C       -0.63576020      -0.04253982      -0.43222407        0       0.71916713      -0.28755547      -0.21169496      -0.62244041      -0.17215559       0.50604896      -0.09103203
H        0.92051709       1.11528305       0.59740088        0       0.01191562       0.00117310       0.07561346      -0.35775283      -0.92367495      -0.01215930       0.02885282
H        0.46798368      -0.45145595       1.34784340        0      -0.24898206       0.03759033      -0.18202504      -0.26474547      -0.23067369       1.13101109       0.04068425
H        1.49809511      -0.43622050       0.00429145        0       0.20078979      -0.01972398       0.13508526       0.35495898      -0.27159262      -0.64983549       0.03427519
H       -0.96649225      -1.08163978      -0.63857361        0       0.11482431       0.17073545      -0.13479453       0.35231389       0.43341795       0.49993563       0.02654184
H       -0.52514282       0.38612455      -1.42461020        0      -0.17170646      -0.03232180       0.15757471       0.15777840       0.38140652       0.18265482       0.03237020
H       -1.47820863       0.47227346       0.12022806        0      -0.20991884       0.18817023       0.04632410       0.90984340      -0.49540305      -0.73201364       0.02713598
8
Properties=species:S:1:pos:R:3:tags:I:1:momenta:R:3:forces:R:3:charge:R:1 energy=-199.47613851710983 dipole="-0.006156016118349532 0.00019633437434475262 0.018084599674102093" pbc="F F F"
C        0.61515277       0.03633372       0.43716280        0      -0.56894780      -0.12377028       0.56690043      -0.53951824       2.23904764       0.27761895      -0.09892060
C       -0.60349539      -0.05031789      -0.44680736        0       0.54603992      -0.10305848      -0.74895544      -0.56850479      -0.16242508      -0.59722706      -0.09224504
H        0.81108357       1.12481585       0.67746372        0      -0.08568028       0.14916846       0.07765966       0.07145125      -1.03447141      -0.39305655       0.02118123
H        0.35192030      -0.40216852       1.36437046        0       0.14132099       0.01309947      -0.15814874       0.11728544      -0.66423348       0.91679500       0.03952815
H        1.48068437      -0.39872021       0.01440882        0      -0.08904491      -0.05052472      -0.05165968       0.72566235      -0.41081502      -0.34773214       0.04097517
H       -0.88415280      -1.12998312      -0.56684039        0       0.08300336       0.06940324       0.17146781       0.14886594       1.11644638      -0.28281656       0.03018076
H       -0.47195610       0.48853654      -1.40721271        0       0.25879640      -0.07951672       0.08791198       0.11884821      -0.78154193       0.33634710       0.02885348
H       -1.42648481       0.48415026       0.03273158        0      -0.28548767       0.12519901       0.05482398      -0.07409016      -0.30200710       0.09007126       0.03044685
8
Properties=species:S:1:pos:R:3:tags:I:1:momenta:R:3:forces:R:3:charge:R:1 energy=-199.47173300005326 dipole="0.016682179783725135 -0.007236701516753087 -0.011020618976828985" pbc="F F F"
C        0.59462707       0.05264059       0.48592457        0       0.05967007      -0.13424356       0.94574267      -0.40248216       0.76040995      -0.54118238      -0.10072008
C       -0.60876808      -0.04057112      -0.47310085        0       0.06091791      -0.15943608      -0.41509312       0.90264275      -1.75040121      -0.27418973      -0.09585735
H        0.85919099       1.11590349       0.66787114        0       0.20895047       0.17123914       0.08727896      -0.32331582      -0.71443206       0.12615789       0.03029000
H        0.49201241      -0.50446771       1.39700634        0       0.06321930       0.04150593      -0.20890603      -0.46590088       0.11298595       0.51789837       0.03494326
H        1.42138720      -0.39409253      -0.00978039        0      -0.08569557       0.01713399      -0.03357046       0.87460239      -0.29179206      -0.49208000       0.03450895
H       -0.86381725      -1.12728752      -0.68745816        0       0.01938655      -0.05151732      -0.26699537       0.22874800       1.11010269       0.50654847       0.02047855
H       -0.25821388       0.33068491      -1.44033455        0       0.02455191      -0.12195818      -0.06155258      -0.52627497       0.38765798       0.23450624       0.03584116
H       -1.48205981       0.43544338      -0.08010771        0      -0.35100063       0.23727608      -0.04690408      -0.28801931       0.38546876      -0.07765886       0.04051552
8
Properties=species:S:1:pos:R:3:tags:I:1:momenta:R:3:forces:R:3:charge:R:1 energy=-199.4254468645492 dipole="0.0008725993962986563 0.009304805337108051 -0.011296536191547671" pbc="F F F"
C        0.59010126       0.05265502       0.51079376        0      -0.25328389      -0.46968181      -0.11208342      -0.93326031       0.76904807      -0.24260273      -0.09716056
C       -0.59341740      -0.05571122      -0.49738881        0       0.70638828      -0.05387984      -0.16702103       1.52422879      -0.97178783      -0.42850865      -0.09955649
H        0.83034759       1.09577637       0.79967919        0      -0.21569911       0.27150404       0.18278140      -0.42464534      -0.44229918      -0.29930102       0.02715087
H        0.39963502      -0.49038933       1.43695123        0      -0.18143266       0.10714249      -0.30603383       0.01947890      -0.08382555      -0.28111150       0.03410533
H        1.45459825      -0.31692197      -0.00651176        0       0.01854146       0.13054030       0.24097771       0.41209875      -0.41212209       0.09026060       0.03984138
H       -0.89067835      -1.12309571      -0.63588438        0      -0.00718824      -0.18936379       0.11644085       0.46751908       0.81186675      -0.02820825       0.02880286
H       -0.28885511       0.39379549      -1.44900097        0       0.03172988       0.08402774      -0.00148434       0.31954738      -0.53077496      -0.04293668       0.02896204
H       -1.46553332       0.47725182      -0.30496225        0      -0.09905572       0.11971087       0.04642265      -1.38496726       0.85989478       1.23240822       0.03785457
8
Properties=species:S:1:pos:R:3:tags:I:1:momenta:R:3:forces:R:3:charge:R:1 energy=-199.37271773492571 dipole="-0.014323639026898842 0.013441470741492809 0.009238505927600948" pbc="F F F"
C        0.54520810       0.06040109       0.49548756        0      -0.53192878      -0.25852947       0.26492646       0.27424123      -0.19429306       1.92467994      -0.09406493
C       -0.54712181      -0.05422845      -0.51489800        0       0.66732228      -0.01494242      -0.35329861       1.76685897      -2.48874307      -1.04656286      -0.10443215
H        0.56059392       1.10816486       0.79233717        0      -0.10051252       0.34047735       0.08259864       0.60893982      -0.04242093       0.14907199       0.03135175
H        0.26455055      -0.53329233       1.40633742        0      -0.00369063       0.11770138      -0.16316163       0.16365133       0.54923196      -0.59170161       0.02056489
H        1.53278640      -0.30377615       0.23104656        0      -0.17907368       0.09840458       0.19064435      -0.05633255       0.19901692      -0.40060072       0.03057527
H       -0.79482693      -1.12840679      -0.60830452        0       0.00927616      -0.19000496      -0.16327357      -0.18150767       0.53066786      -0.27331849       0.02765309
H       -0.21752285       0.31411895      -1.47441056        0       0.04661351      -0.05532653      -0.11141834      -0.17166576       0.18107701      -0.24367313       0.03635906
H       -1.32277794       0.46964025      -0.11571754        0       0.09199365      -0.03777993       0.25298270      -2.40418535       1.26546331       0.48210488       0.05199301
8
Properties=species:S:1:pos:R:3:tags:I:1:momenta:R:3:forces:R:3:charge:R:1 energy=-199.40583077063891 dipole="-0.011359341301449598 0.025268599475815293 -0.002399896602019865" pbc="F F F"
C        0.51434545       0.08465037       0.55469330        0       0.08776123       0.07426454       0.93163442       0.29898203      -1.24474391      -0.01693211      -0.09552458
C       -0.50572687      -0.08479602      -0.55088499        0      -0.00027004      -0.29294112      -0.39611087       0.27602346      -1.46395701      -0.24728805      -0.10149183
H        0.63554311       1.10794583       0.76680781        0       0.08300894       0.29642739       0.11338133      -0.19442750       1.34438178       0.50420123       0.03869600
H        0.16757037      -0.45378236       1.48567068        0       0.05667553       0.10890075      -0.01213441       0.70580382       0.47235981      -1.10139501       0.03120693
H        1.51509113      -0.20034932       0.20247171        0      -0.16095761       0.04487593      -0.03793287      -0.32379486      -0.60865438       0.41132183       0.03088722
H       -0.79437299      -1.12670068      -0.74663018        0      -0.01526194      -0.29575603      -0.04380112       0.39854580      -0.02251483       0.30138480       0.02458018
H       -0.24620830       0.29776784      -1.51649857        0       0.03843762       0.14842230       0.00030076       0.57198398       0.50453871      -0.29706245       0.03256783
H       -1.38031956       0.37685413      -0.23720005        0      -0.08939374      -0.08419376      -0.55533725      -1.73311672       1.01858982       0.44576976       0.03907825
8
Properties=species:S:1:pos:R:3:tags:I:1:momenta:R:3:forces:R:3:charge:R:1 energy=-199.36255454463492 dipole="0.008931580183722782 0.006427182025543971 -0.014325005668974208" pbc="F F F"
C        0.50432736       0.12892821       0.59324561        0      -0.58911290       0.11596758      -0.03972889      -0.96674452      -3.81295441      -0.21560920      -0.10017161
C       -0.51543043      -0.11560287      -0.59302923        0       0.02181911       0.34708507      -0.18087004       1.54460226       0.76898065       1.07132002      -0.10525960
H        0.53891247       1.12134575       0.86042051        0      -0.15755249       0.12037440       0.04250581       0.42632199       1.96022607       0.27068529       0.04850660
H        0.25398877      -0.46545428       1.53484967        0       0.01068291      -0.02281552       0.06816773      -0.14754055       0.70622499      -1.13947746       0.01598884
H        1.45834941      -0.33670144       0.27068139        0      -0.05463228      -0.04999227       0.14512925      -0.36019753       0.83903598       0.17198899       0.03205778
H       -0.66315762      -1.15945623      -0.75309060        0       0.20210747      -0.19585089      -0.06299503      -0.10026469      -0.60572447      -0.04023200       0.03750415
H        0.01162157       0.30511304      -1.44233287        0       0.32460434      -0.13905704       0.04873634      -0.31169319       0.01625993      -0.35751716       0.03672489
H       -1.46741397       0.37637267      -0.47310641        0       0.24208385      -0.17571132      -0.02094518      -0.08448378       0.12795126       0.23884152       0.03464895
8
Properties=species:S:1:pos:R:3:tags:I:1:momenta:R:3:forces:R:3:charge:R:1 energy=-199.44924862894058 dipole="0.009785392695826853 0.01311280050416534 -0.0075466139578845015" pbc="F F F"
C        0.42886242       0.10762617       0.58811884        0      -0.79734374      -0.32620808      -0.05962448       1.47661715      -0.62313511       1.00416189      -0.09438003