9
Properties=species:S:1:pos:R:3:forces:R:3 energy=-44.536766443994566 pbc="F F F"
C       -0.44129481       0.21679602       0.30685321       1.32484426      -3.68514585      -0.50193628
C       -0.38002939       0.34782189      -1.27953989      -3.11634033      -0.71717640       1.47987299
O        0.71623546      -0.53612645       0.90688671      -2.49623820      -0.19086541      -0.58502629
H       -0.55203734       1.15176461       0.85809683      -0.41086594       0.65348772      -0.02182315
H       -1.15433250      -0.59803922       0.61653133      -0.70632815       1.22877074      -0.39069052
H       -1.36262361       0.84189541      -1.62753361       1.03252464      -0.19595023       0.43143112
H        0.41541669       0.98845525      -1.52821979       1.65695596       1.16378080      -0.82939577
H       -0.38748736      -0.60692441      -1.87871147       0.46942028       0.30022119       0.77809360
H        1.45797789       0.00344343       0.75511095       2.24602754       1.44287744      -0.36052570
9
Properties=species:S:1:pos:R:3:forces:R:3 energy=-44.54797245221016 pbc="F F F"
C        0.41925059      -0.39155484      -0.17316657       0.34675478       1.83071199      -1.55040145
C        0.19927079       1.10620381      -0.65177069       4.23040684      -1.93153609       0.81198393
O       -0.56768800      -0.72468331       0.72430067      -2.21192150       0.48645561       2.04568312
H        0.42110251      -1.03241259      -1.16294611      -0.23689672       0.39541411       1.77128148
H        1.42904612      -0.47984321       0.33842221      -0.16430679       0.06666139      -0.68159318
H        0.29020060       1.71462006       0.23321526       0.02024509       0.80239668       0.93824911
H        1.08279249       1.38532129      -1.29409913      -0.62312903       0.09146356       0.05949967
H       -0.70109977       1.32126602      -1.10725960      -2.62147913       0.21150315      -1.48573170
H       -0.88226612       0.07689242       1.32560162       1.26032651      -1.95307040      -1.90897098
9
Properties=species:S:1:pos:R:3:forces:R:3 energy=-44.409704796819824 pbc="F F F"
C        0.36954819      -0.26426992      -0.12707382       0.97432232       0.80601143       3.17676774
C        0.26187131       1.17915768      -0.70701538      -1.60121075      -0.89049890       1.34878734
O       -0.59911141      -0.88334622       0.73110377      -0.81504667       0.99545324      -0.29135301
H        0.48139970      -1.01003999      -0.89033996       0.44439761      -0.49518634      -1.21411132
H        1.34338332      -0.24574739       0.53322379      -0.74769938      -0.03398896      -1.23222475
H        0.44169298       2.05563913      -0.01098653      -1.24442583      -0.66797247       0.07981998
H        1.21504622       1.22018966      -1.10419625       2.61570305       0.15509985      -2.17396437
H       -0.51811230       1.28140341      -1.49918923       0.17068022       0.38001099       0.42766946
H       -0.97853395      -0.18314915       1.30548974       0.20327948      -0.24892883      -0.12139108
9
Properties=species:S:1:pos:R:3:forces:R:3 energy=-44.51305261101061 pbc="F F F"
C       -0.18327929       0.12954131      -0.51269729      -1.24850918      -0.18736065       1.22634639
C        0.83653392       0.98982158       0.24028151      -0.29302167       0.03919976      -0.20698360
O       -0.55348760      -1.03081171       0.23029671       2.27181489      -1.05547889      -0.83626048
H       -1.14862232       0.65492432      -0.68591751       0.32650054       0.48335914      -0.48270362
H        0.23943730      -0.20754629      -1.44242437       0.22383207      -0.37477869      -1.18715835
H        0.48631132       2.06620816       0.16373351       0.15901973      -0.65216527       1.32450272
H        1.00907562       0.36682348       1.18745569      -0.22367796       1.57448651      -0.37052200
H        1.79446615       1.06822193      -0.28702743       0.49495006      -0.41143440      -0.26008751
H       -1.38018480      -0.92610560       0.65472624      -1.71090838       0.58417244       0.79286645
9
Properties=species:S:1:pos:R:3:forces:R:3 energy=-44.70997507653101 pbc="F F F"
C        0.02811988       0.40247618       0.40818284       1.15128810      -0.00274151      -1.63512566
C       -1.28057936      -0.17769038      -0.04898921      -0.06555100      -0.71354561       1.08751632
O        1.11463272      -0.22934597      -0.27712962       1.10822965       0.29647516      -1.18358269
H        0.10788837       1.44319845       0.14595461      -0.27447806       1.42433023       0.23087238
H        0.28769533       0.29314791       1.44529649      -0.35544781      -0.16638163       1.37002115
H       -1.91470527      -0.40915985       0.84165818      -0.34295347       0.29342882      -0.56102170
H       -1.75887214       0.36986109      -0.86330245      -0.47543140       0.43107734      -0.05894658
H       -0.96978041      -1.13020681      -0.47846049      -0.12511901      -0.76071415      -0.18351250
H        1.47822762       0.39358447      -0.97234895      -0.62053700      -0.80192854       0.93377934
9
Properties=species:S:1:pos:R:3:forces:R:3 energy=-44.73354066612319 pbc="F F F"
C       -0.47061858       0.21502560       0.32611202      -0.13293419      -0.33390291      -0.37991689
C        0.12341399       0.82123991      -0.89838853       0.57122565       1.79817948       0.12532083
O        0.25986089      -0.97917150       0.53247714       0.30412152      -0.38502629       0.82999770
H       -0.41959480       0.84367165       1.23818185      -0.36704367       0.32226236       0.02730242
H       -1.51599094      -0.00136261      -0.00201068      -0.01597251      -0.29739683       0.96766777
H       -0.09227351       1.88732458      -1.06084029      -0.10652885       0.53195878       0.24030619
H        1.22195745       0.71889432      -0.84731332       0.15527607      -0.01380959      -0.40870887
H       -0.32718370       0.36179101      -1.75209149       0.07240502      -0.94777995      -1.23657404
H        1.14454938      -0.61730135       0.79116590      -0.48054903      -0.67448505      -0.16539517
9
Properties=species:S:1:pos:R:3:forces:R:3 energy=-44.450029894913314 pbc="F F F"
C        0.17527060      -0.42522442      -0.34776737       0.80817481       0.98126864      -0.91597228
C       -1.30054213       0.15225946      -0.32067610       2.51303905      -0.72171205      -4.90139870
O        1.04964047       0.18873122       0.64532831      -0.37828509      -2.57409045      -0.85599362
H        0.30073704      -1.51393898      -0.20929188      -0.38009167      -0.16489896       0.35913352
H        0.64807549      -0.28366306      -1.46490328      -1.10215405       0.01682590       1.94359001
H       -1.15842450       1.11093062      -0.87331575      -0.49318061       0.30543626       0.69463572
H       -2.03681655      -0.36909388      -1.00623339       0.80640274      -0.19180441       0.14438715
H       -1.83739181       0.21390029       0.54207276      -1.20081820       0.46212898       3.60066675
H        0.83033703       1.09723922       0.73336955      -0.57308699       1.88684610      -0.06904866
9
Properties=species:S:1:pos:R:3:forces:R:3 energy=-44.748471808372415 pbc="F F F"
C        0.09275252      -0.21920094       0.56272115       0.84132869       1.17425882      -3.10909649
C       -1.21894059       0.42937752       0.10820585       1.13354665       0.77109802      -0.33853594
O        1.03820077      -0.17512814      -0.54765011       0.58164921       0.83158060       0.95077153
H        0.68470084       0.26680993       1.32402601      -0.10956367       0.96358782       0.94441326
H        0.04642470      -1.21607373       0.88917254      -0.81749997      -2.29395912       0.74042777
H       -2.03679561       0.32252471       0.80766572      -0.77689754      -0.11305244       0.47007132
H       -1.04673116       1.50694454      -0.11411462       0.06382516       0.05560663       0.54213742
H       -1.49101677       0.11473843      -0.91580560      -0.23485551      -0.79378849       0.10730022
H        0.78244289      -0.72105342      -1.29271776      -0.68153297      -0.59533184      -0.30748904
9
Properties=species:S:1:pos:R:3:forces:R:3 energy=-44.79655461964467 pbc="F F F"
C       -0.28252596       0.00819394      -0.46959312      -0.61401460       0.14739379       0.65730414
C       -0.84497275       0.40293916       0.88707868      -0.45436820       2.69630170      -0.64407957
O        1.02944428      -0.40780679      -0.35889490       1.78266117      -0.01334824       0.01108833
H       -0.80821402      -0.88245816      -0.77785730      -1.21373980      -0.77885663      -0.51573960
H       -0.45124978       0.76794332      -1.27091583       0.02211933       0.14751540       0.27013246
H       -1.92391661       0.58680822       0.78150224      -0.45311661       0.33387282      -0.19855250
H       -0.84187562      -0.36189907       1.61280916       0.61978456      -1.66354835       1.21341729
H       -0.41587309       1.35285572       1.37243417      -0.15391588      -0.95976733      -0.67958257
H        1.53476657       0.10941861      -0.99589644       0.46459004       0.09043684      -0.11398794
9
Properties=species:S:1:pos:R:3:forces:R:3 energy=-44.50825771471136 pbc="F F F"
C       -0.17711338      -0.43982467       0.02546069       0.08951342       0.08003616       0.26468944
C       -0.96753474       0.69804363       0.77852040      -1.12293114      -0.22645377      -1.01250935
O        1.07535433      -0.20548056      -0.70462579      -1.00624462       1.35011658       1.01616112
H        0.11960918      -1.20239730       0.77115026      -0.63985168      -0.40986307       0.14844355
H       -0.93067601      -0.77005711      -0.70717982      -0.13012968      -0.80964263      -0.01465310
H       -1.80271111       0.33122064       1.52080905       1.18798464      -0.13663763      -1.48478838
H       -0.35715184       1.27256341       1.44927355       0.96095300       0.92027365       0.45039819
H       -1.49237784       1.37993435       0.00811434       0.69320015      -0.54133386       1.00520422
H        1.03255190      -0.82805556      -1.43769262      -0.03249405      -0.22649547      -0.37294568
9
Properties=species:S:1:pos:R:3:forces:R:3 energy=-44.08311489825792 pbc="F F F"
C       -0.23980832       0.33535106      -0.39680217       3.51621527      -1.50731255      -0.39445084
C       -0.99831824       0.12125117       0.85119786       0.96150732      -2.26413305      -0.16254927
O        1.13998514      -0.35166495      -0.38191296      -1.12552790      -0.20201771      -0.41543439
H       -0.75434166      -0.25095073      -1.14386474      -0.56561658       0.63490806      -1.47329053
H        0.04392951       1.41716800      -0.51628652      -0.66508754      -0.55193540      -0.70202118
H       -1.05614148       1.03086050       1.33201591       0.31751224       2.13498438       2.59278175
H       -1.99936566      -0.06976746       0.61318413      -2.42152731      -0.48629976      -0.72773243
H       -0.67779943      -0.83027740       1.35284606       0.24145838       0.89241711       0.35311201
H        1.10095178      -1.15733836      -0.99026898      -0.25893388       1.34938897       0.92958482
9
Properties=species:S:1:pos:R:3:forces:R:3 energy=-44.25492701367057 pbc="F F F"
C        0.12685334      -0.32752244      -0.43711064       2.94940891       0.81582071       0.46366364
C       -1.26944700       0.13012287      -0.33668543       1.54633831       2.13264225       2.20381414
O        1.05664664       0.21113427       0.65584028      -0.19401181       1.53370827      -4.51548812
H        0.17493370      -1.37086441      -0.22770314       0.03396284      -1.83094354      -0.46564962
H        0.57827679      -0.09558738      -1.51427776      -0.35044892      -0.27862912       2.14346577
H       -1.23681662       1.23781596      -0.54106326      -0.77411648      -0.48443487       0.70828832
H       -1.86393628      -0.34997068      -1.01081816      -2.00442040      -1.50027332      -2.94808338
H       -1.67435528      -0.27401758       0.61447510      -0.13694518       0.97542021       0.39214327
H        0.86361503      -0.14805734       1.48961543      -1.06976726      -1.36331060       2.01784597
9
Properties=species:S:1:pos:R:3:forces:R:3 energy=-44.77882728064924 pbc="F F F"
C        0.26305094       0.45066173       0.28054768       0.31950239      -0.16442866      -2.12322891
C       -1.08095381      -0.07335528       0.72155080      -1.31377351       0.96395563       0.74961934
O        0.82294465      -0.31996006      -0.88782181      -0.83005735       0.58239029       1.62939494
H        0.01169372       1.46432771      -0.10708998       0.58307136       0.31818889       0.23627190
H        1.07623750       0.51947754       1.04602953      -0.40732251      -0.18135061      -0.14653212
H       -1.49660301       0.39937213       1.70214437       0.56736140      -0.26848976      -1.41762142
H       -1.85568768       0.03818492      -0.10850233       0.55912920       0.24962271       0.68329522
H       -1.08439881      -1.12107487       0.92458497       0.29314220      -1.62117580       0.37245569
H        0.03106907      -0.71896085      -1.30553843       0.22894687       0.12128726       0.01634537
9
Properties=species:S:1:pos:R:3:forces:R:3 energy=-44.74623921916009 pbc="F F F"
C       -0.29035553       0.32803851      -0.39632280       1.85108301      -1.56635190       0.57987035
C       -1.02850729      -0.68587636       0.50294091       0.72953725       0.28222875      -1.26897790
O        1.18940421       0.29744982      -0.13617932      -1.76262012       0.39740035      -0.04397390
H       -0.36541636       0.08996329      -1.46697546      -0.31431457      -0.16839770      -0.21705189
H       -0.67394683       1.29225991      -0.21401321      -0.59629192       2.10200759       0.03108526
H       -1.88714522      -1.15248538       0.00837811      -0.29832545      -0.18611719      -0.23647769
H       -0.22065839      -1.39378639       0.61178701       0.28021891      -1.24452513       0.46523142
H       -1.34185721      -0.34653411       1.48327220      -0.06629085       0.55140987       0.66950764
H        1.32387022       1.05157946       0.46870488       0.17700378      -0.16765466       0.02078665
9
Properties=species:S:1:pos:R:3:forces:R:3 energy=-44.77414659940041 pbc="F F F"
C        0.15169331      -0.18360239      -0.51763556       2.60766306       1.47891548       0.12683529
C       -0.47583487       1.21603444      -0.20741526       0.01186222      -0.86522483       0.86262498
O        0.29382870      -0.99843006       0.61787031      -0.26852103      -0.21698345       0.52148955
H       -0.38674882      -0.82065412      -1.23072800      -0.32027787       0.31985812      -0.68624417
H        1.25415776       0.05554322      -0.96719477      -1.87190967      -0.53391026       0.47939247
H       -0.23437554       1.95345473      -0.97107361       0.12469062       0.33097967      -0.61851744
H       -1.58875965       1.11937429      -0.17569434       0.24962528       0.26197914       0.39996549
H       -0.04039318       1.66889271       0.77469984      -0.66396558      -0.79444745      -1.12191213
H        0.19357867      -0.43221529       1.40207787       0.13083291       0.01883363       0.03636590
9
Properties=species:S:1:pos:R:3:forces:R:3 energy=-44.419815984757406 pbc="F F F"
C        0.31856316       0.11070254       0.53289583       0.77616690       0.16399873      -1.38186054
C       -1.25964105       0.27608505       0.32755019       2.51576144      -2.73228662       0.68481204
O        0.81768896      -0.35323411      -0.75908638      -0.72333346      -0.56166770      -0.13828588
H        0.90542577       1.01067101       0.96319855      -0.95617737      -0.52008504      -0.65491399
H        0.59777155      -0.71891170       1.24537092      -0.65949216       0.28962171      -0.06676356
H       -1.70802538       0.09043905       1.29662086      -0.65481402      -0.01859118       0.70526292
H       -1.56797409       1.20508358      -0.04606148      -0.43346601       2.01613653      -0.87067372
H       -1.57245972      -0.55422338      -0.37681799       0.24016437       0.61125771       0.49866369
H        1.57876234      -0.03653897      -1.28620417      -0.10480964       0.75161586       1.22375909
9
Properties=species:S:1:pos:R:3:forces:R:3 energy=-44.723155309769936 pbc="F F F"
C        0.11460863       0.57022822       0.14086095      -1.20236747      -0.17692320      -2.20235065
C       -0.83755310       0.01272121      -1.06654801       0.58173796       2.85038660       1.32009871
O        0.69574636      -0.55436907       0.80287042      -0.62649917       1.07274022       1.23042198
H        0.87061942       1.27920450      -0.32607846      -0.16581060      -0.47273416       0.53821595
H       -0.58455107       1.16653052       0.78586007       0.48832713      -0.08944431       0.05827250
H       -1.27247884       0.84934318      -1.73899610       0.64304158      -0.79511782       0.90577630
H       -0.23385235      -0.63127217      -1.68186962       0.24062675      -0.99627300      -0.51243348
H       -1.66476658      -0.42634314      -0.51240527      -0.49132781      -0.86543396      -0.24498669
H        0.45487272      -0.38573596       1.75980049       0.53227162      -0.52720037      -1.09301467
9
Properties=species:S:1:pos:R:3:forces:R:3 energy=-44.628345961563355 pbc="F F F"
C        0.16558670      -0.33792436      -0.40377998       0.95228279      -2.12621293      -0.18191022
C       -1.24929577       0.14473588      -0.32440908      -1.74856659      -0.03026947       0.60975071
O        1.00115209       0.13978562       0.66945759      -1.25647512      -3.81097061      -0.18290954
H        0.04070111      -1.48193553      -0.29418514       0.59329058       1.03057172       0.51923299
H        0.67252659      -0.36433899      -1.43100310      -0.39686542       0.87778247       0.62054225
H       -1.38436323       1.18005051      -0.61783014       0.13370308       1.07815188      -0.16051536
H       -2.03602154      -0.38451514      -1.00283971       1.21127473       0.18387204       1.09489360
H       -1.52774391       0.11147506       0.80356223      -0.00545187      -0.21037029      -1.50727054
H        1.25582959       1.02094618       0.59291464       0.51680777       3.00744524      -0.81181388
9
Properties=species:S:1:pos:R:3:forces:R:3 energy=-44.403598611270354 pbc="F F F"
C        0.46649294       0.16771920      -0.22691959       0.66965285      -3.10104483       1.06934201
C       -0.72959697       1.04705352      -0.27428359      -0.87114293      -0.87395638       0.79049589
O        0.23896595      -1.12119752       0.38110797      -0.51029673      -0.13442725       2.37210216
H        0.88672192      -0.24516092      -1.16130001       0.12184930       1.09484850      -0.67930217
H        1.27689686       0.59139854       0.43523151      -0.19324898       0.68842113      -0.95812104
H       -1.72475801       0.82613298      -0.72224429       0.57743772      -0.88684518      -0.40955542
H       -0.97761734       1.24714891       0.77000013      -0.07250616       0.74879938       0.52926380
H       -0.32535693       1.85753209      -0.78669977       0.37109180       2.86329396      -0.90069914
H        0.20510083      -0.95671039       1.38792679      -0.09283676      -0.39908933      -1.81352609
9
Properties=species:S:1:pos:R:3:forces:R:3 energy=-44.63640148830109 pbc="F F F"
C       -0.33382386      -0.53906982      -0.02553487       2.93079659       0.70930456       2.48893132
C       -0.85889254       0.78579077       0.45772365       0.28089911       1.81628046      -1.65855906
O        1.04723748      -0.26461866      -0.46000350       0.13799299      -0.62808937       0.70468505
H       -0.36710931      -1.16533661       0.93506036       0.11559248      -0.35073955      -1.13065679
H       -0.73705947      -1.06495918      -0.88308597      -0.95401635      -0.03526353      -0.41716234
H       -1.89868909       0.77858618       0.72874482      -1.50276266       0.04024114      -0.26571467
H       -0.43460293       1.18986852       1.40287292       0.69848500      -0.50431574      -0.09337560
H       -0.59693071       1.57229483      -0.36053736      -0.77718689      -0.82412804       1.08238378
H        1.62273069      -0.05151337       0.32875016      -0.92980022      -0.22328993      -0.71053167
9
Properties=species:S:1:pos:R:3:forces:R:3 energy=-44.56895728289874 pbc="F F F"
C       -0.31635629      -0.45083386      -0.19697817       1.82987722      -0.01857159       2.44749839
C       -0.87291896       0.74952309       0.70174959      -3.08073685      -2.62881316      -4.43498126
O        1.10396227      -0.31409919      -0.42789599      -0.61634691      -1.45490909       0.94380284
H       -0.41175537      -1.48839401       0.25245035      -0.08279901       0.81437912       0.17404301
H       -0.78149161      -0.56015368      -1.14786414      -1.32509997       0.34129720      -1.42304244
H       -1.98328957       0.54106924       0.87895797       0.70915163       0.07458666      -0.15864101
H       -0.48981525       0.82601222       1.65422786       1.84578916       0.66575030       2.43423525
H       -0.91971014       1.57576279      -0.03155675       0.50737802       0.73996622       0.74187286
H        1.23298273       0.53080778      -0.82896565       0.21278672       1.46631439      -0.72478770
9
Properties=species:S:1:pos:R:3:forces:R:3 energy=-44.497663646002366 pbc="F F F"
C        0.10619965      -0.21283418       0.44397453       0.88621033      -1.35252725       0.85576541
C       -1.21004324       0.58122533       0.30110432       0.92364579      -0.13710479      -0.38370960
O        0.96828878      -0.36108762      -0.70545287      -2.26897655       0.56027805      -0.60363721
H        0.65958384       0.32322117       1.25072603       0.14486140      -0.28852917       0.14881440
H       -0.01467043      -1.33442890       0.80358042      -0.61669508       1.80275497      -0.11215560
H       -1.60521679       0.53075964      -0.68950912      -1.01577855      -1.18309604      -1.32323653
H       -1.93981118       0.38300974       1.08280604      -0.45306195      -0.70705864       0.27626936
H       -1.17723119       1.66721563       0.29399301       1.14317335       1.02203726       0.59565569
H        1.85985027      -0.22938247      -0.42210904       1.25662126       0.28324560       0.54623409
9
Properties=species:S:1:pos:R:3:forces:R:3 energy=-44.62267452435299 pbc="F F F"
C       -0.00004810      -0.57262795       0.19866022      -2.16622468       2.13810795       1.15538734
C       -1.13939564       0.57123069       0.31576000       2.35301862      -1.27812133       0.08503141
O        1.02172732      -0.02819929      -0.50100326       2.97581043       0.72047465      -1.19949190
H        0.24851184      -0.92193399       1.20227852       0.36430484      -0.38073643       0.75398699
H       -0.38597928      -1.42054820      -0.36621595      -0.35153169      -0.55213794      -0.31736353
H       -1.92675886       0.19403166       0.92113393      -1.26954898      -0.18294831       1.37311212
H       -0.66768633       1.54083357       0.70421586      -0.73853558      -0.93228339      -0.61841203
H       -1.54706686       0.54170893      -0.68285020      -0.27897976       1.06527461      -0.97767641
H        1.63744910       0.52867534       0.04416991      -0.88831314      -0.59762979      -0.25457404
9
Properties=species:S:1:pos:R:3:forces:R:3 energy=-44.66072600057487 pbc="F F F"
C        0.01409741      -0.05088287      -0.54423744      -0.69522398       0.58666271      -0.51845062
C        0.58042880       1.13586199       0.19738294      -0.56049433      -0.11723462      -0.05077351
O       -0.48317945      -1.01599383       0.32359844      -1.04046209      -1.46314454       0.80893512
H       -0.84584039       0.22501418      -1.16861440      -0.04528915       0.65003978      -0.74612492
H        0.81380845      -0.37636245      -1.27575207      -0.35743287      -0.66501401       0.58447804
H        0.96326818       0.81823836       1.17060620       0.92871513      -0.23685599       0.10267351
H        1.24451409       1.59249270      -0.50971076       1.46660831       0.72335063      -0.16954912
H       -0.10832089       1.92707241       0.46216484      -1.11784210       0.48104704       0.09541203
H       -1.48316015      -0.98941871       0.31785809       1.42142103       0.04114898      -0.10660059
9
Properties=species:S:1:pos:R:3:forces:R:3 energy=-44.54346472458292 pbc="F F F"
C       -0.17334738      -0.09952299      -0.58893754      -1.32284151      -1.85585236       0.57805724
C       -0.10258797       1.28001415       0.00089422       0.63041442      -0.47293290      -1.13908229
O        0.19874642      -1.07108058       0.52338428      -3.31357357       1.18688886      -1.82631019
H       -1.23632011      -0.32195807      -1.02383189       1.09590855      -0.11915571       1.26263244
H        0.40870201      -0.28762597      -1.50518172       0.77399410       0.16305129      -0.03691096
H       -0.55836483       1.22123174       0.94559071      -1.44517900      -0.02757295       1.81253727
H        0.93426824       1.36322152       0.30035654       1.04677382       1.00223989      -0.18027622
H       -0.54560622       2.11045949      -0.57578236       0.34524732       0.07774977      -0.21720857
H        1.12962659      -1.15200990       0.55815376       2.18925586       0.04558410      -0.25343872
9
Properties=species:S:1:pos:R:3:forces:R:3 energy=-44.70051537303334 pbc="F F F"
C        0.12826521       0.11642262      -0.43041873       0.55244606       1.37721393      -0.06384979
C       -1.33387468      -0.19525910      -0.19425957      -0.27019607      -0.92150215      -0.62143183
O        1.11260968       0.02180772       0.55373482       0.37275342      -2.01709482       0.33659968
H        0.55621477      -0.44498593      -1.22328525       0.17206258      -1.36090687      -1.44896338
H        0.23227162       1.11827982      -0.83332543      -0.41726817       1.23023064      -0.48289861
H       -1.95344274       0.47357668      -0.86842725       0.26173144      -0.74291506       0.38832958
H       -1.51112876      -1.30118320      -0.41043385      -0.25806132       0.96757814       0.22183904
H       -1.63230119       0.00436663       0.83945925      -0.15011617       0.12090140       0.47896752
H        1.01268350       0.74170626       1.15009779      -0.26335182       1.34649468       1.19140779
9
Properties=species:S:1:pos:R:3:forces:R:3 energy=-44.61122180744405 pbc="F F F"
C        0.24851506      -0.21015615      -0.53560879      -3.34166813       1.58361971       1.17397291
C       -0.40719399       1.25822353      -0.21064875       1.27756434      -0.60980126      -1.15996988
O        0.17224209      -0.92200944       0.68936558       0.82789294       0.66407166       0.19583237
H       -0.32900384      -0.81102197      -1.29225318       0.13418171       0.74894865      -0.12950317
H        1.20382325       0.02899945      -0.92063528       2.18538926      -0.19961681      -0.50148933
H       -0.55131101       1.90234973      -1.18625575       0.17373165      -0.93490155       1.66439849
H       -1.33636326       1.03754511       0.31894878      -0.72316233       0.14249305      -0.08598558
H        0.23817704       1.80357384       0.57243632      -0.42230743      -0.55016744      -1.09834657
H       -0.06954123      -1.81641481       0.45767652      -0.11162201      -0.84464602      -0.05890925
9
Properties=species:S:1:pos:R:3:forces:R:3 energy=-44.33215297555671 pbc="F F F"
C       -0.11344089       0.37138005      -0.49164491       0.29962110      -1.35670901       2.25991483
C       -1.18705688      -0.19525554       0.58870448      -0.00058995       2.39107427      -3.77885934
O        1.16057647      -0.09595992      -0.06713976       1.36404443      -1.17244499       0.18528849
H       -0.16114895      -0.19174995      -1.43260559      -1.36012317       1.12526072      -1.03060303
H        0.04589249       1.46930266      -0.40905005      -0.86800229       0.02626403      -0.86456381
H       -0.79353285       0.11678746       1.51952801       0.30686314       0.33122798       1.72060788
H       -2.20609832       0.24934114       0.33492334       0.66453780      -0.69635967       0.53598412
H       -1.08919599      -1.24266069       0.40631251      -0.47371692      -1.46631531       0.31215874
H        1.27768358      -0.97802887      -0.50994443       0.06736586       0.81800204       0.66007203
9
Properties=species:S:1:pos:R:3:forces:R:3 energy=-44.35256595140163 pbc="F F F"
C        0.45059533      -0.39983727      -0.21670303      -3.70960422       0.78170608      -2.15236023
C        0.30573805       1.14159072      -0.61721686       1.34893852      -1.28353936       1.44889782
O       -0.71000921      -0.69783588       0.70536298       4.18976708       0.53848478       2.16982909
H        0.16265930      -1.02461891      -1.15299486       1.03053552       0.46701058       1.14755493
H        1.45291877      -0.55570775       0.19970250       0.19981298      -0.65384196       0.12562638
H        0.86641146       1.61491864       0.26765886      -0.54993306       0.41152263      -1.34209396
H        0.68565095       1.39613871      -1.64766781       0.09024879      -0.00707019       0.76290417
H       -0.75884846       1.37810282      -0.52461386      -0.34446546       0.17768007      -0.11119218
H       -0.15207924      -0.57212788       1.59849208      -2.25530020      -0.43195263      -2.04916608
9
Properties=species:S:1:pos:R:3:forces:R:3 energy=-44.47047410612322 pbc="F F F"
C       -0.39667139      -0.38626933      -0.23050477       3.14862870      -0.04886929       0.34032118