BEGIN_CFG
 Size
    32
 Supercell
         8.100000      0.000000      0.000000
         0.000000      8.100000      0.000000
         0.000000      0.000000      8.100000
 AtomData:  id type       cartes_x      cartes_y      cartes_z           fx          fy          fz
             1    0       0.000000      0.000000      0.000000    -0.000000   -0.000000   -0.000000
             2    0       0.000000      2.025000      2.025000     0.000000    0.000000    0.000000
             3    0       2.025000      0.000000      2.025000     0.000000    0.000000    0.000000
             4    0       2.025000      2.025000      0.000000     0.000000    0.000000    0.000000
             5    0       0.000000      0.000000      4.050000    -0.000000   -0.000000   -0.000000
             6    0       0.000000      2.025000      6.075000    -0.000000   -0.000000    0.000000
             7    0       2.025000      0.000000      6.075000     0.000000   -0.000000    0.000000
             8    0       2.025000      2.025000      4.050000     0.000000    0.000000   -0.000000
             9    0       0.000000      4.050000      0.000000    -0.000000   -0.000000   -0.000000
            10    0       0.000000      6.075000      2.025000    -0.000000    0.000000    0.000000
            11    0       2.025000      4.050000      2.025000     0.000000   -0.000000    0.000000
            12    0       2.025000      6.075000      0.000000     0.000000    0.000000   -0.000000
            13    0       0.000000      4.050000      4.050000    -0.000000   -0.000000   -0.000000
            14    0       0.000000      6.075000      6.075000    -0.000000    0.000000    0.000000
            15    0       2.025000      4.050000      6.075000    -0.000000   -0.000000    0.000000
            16    0       2.025000      6.075000      4.050000    -0.000000    0.000000   -0.000000
            17    0       4.050000      0.000000      0.000000    -0.000000   -0.000000   -0.000000
            18    0       4.050000      2.025000      2.025000    -0.000000    0.000000    0.000000
            19    0       6.075000      0.000000      2.025000     0.000000   -0.000000    0.000000
            20    0       6.075000      2.025000      0.000000     0.000000    0.000000   -0.000000
            21    0       4.050000      0.000000      4.050000    -0.000000   -0.000000   -0.000000
            22    0       4.050000      2.025000      6.075000    -0.000000   -0.000000    0.000000
            23    0       6.075000      0.000000      6.075000     0.000000   -0.000000    0.000000
            24    0       6.075000      2.025000      4.050000     0.000000    0.000000   -0.000000
            25    0       4.050000      4.050000      0.000000    -0.000000   -0.000000   -0.000000
            26    0       4.050000      6.075000      2.025000    -0.000000    0.000000    0.000000
            27    0       6.075000      4.050000      2.025000     0.000000   -0.000000    0.000000
            28    0       6.075000      6.075000      0.000000     0.000000    0.000000   -0.000000
            29    0       4.050000      4.050000      4.050000    -0.000000   -0.000000   -0.000000
            30    0       4.050000      6.075000      6.075000    -0.000000    0.000000    0.000000
            31    0       6.075000      4.050000      6.075000     0.000000   -0.000000    0.000000
            32    0       6.075000      6.075000      4.050000     0.000000    0.000000   -0.000000
 Energy
       -107.519999620319
 PlusStress:  xx          yy          zz          yz          xz          xy
         0.00090     0.00090     0.00090    -0.00000     0.00000     0.00000
END_CFG

BEGIN_CFG
 Size
    32
 Supercell
         8.100000      0.000000      0.000000
         0.000000      8.100000      0.000000
         0.000000      0.000000      8.100000
 AtomData:  id type       cartes_x      cartes_y      cartes_z           fx          fy          fz
             1    0      -0.002938     -0.007670     -0.005435     0.019932    0.034802    0.029252
             2    0      -0.002457      2.022846      2.021458     0.031153    0.008965   -0.008820
             3    0       2.031521     -0.002124      2.026245    -0.034027    0.013411   -0.010133
             4    0       2.020491      2.026286     -0.005059    -0.000333   -0.014250    0.028671
             5    0      -0.009439      0.004472      4.046016     0.037369   -0.020699    0.005657
             6    0       0.003320      2.022859      6.070488    -0.024342    0.009972    0.006854
             7    0       2.019299     -0.001213      6.076112     0.013602    0.009121   -0.029399
             8    0       2.023472      2.028975      4.048425    -0.002473   -0.014994   -0.005853
             9    0       0.001534      4.051582      0.000043     0.008813   -0.014227   -0.000116
            10    0      -0.004983      6.073602      2.021903     0.037102    0.003182    0.013269
            11    0       2.034019      4.058704      2.022157    -0.061974   -0.033089    0.003604
            12    0       2.030530      6.075795     -0.002467    -0.024799   -0.003373    0.009809
            13    0      -0.000571      4.045593      4.048594    -0.007064    0.013761    0.001544
            14    0       0.000479      6.074608      6.076867    -0.014768   -0.017049   -0.030457
            15    0       2.025614      4.049751      6.075934    -0.010046    0.001756   -0.014027
            16    0       2.016777      6.074815      4.050025     0.011725    0.013492   -0.004915
            17    0       4.042001     -0.002569     -0.005374     0.046775    0.009956    0.022348
            18    0       4.049318      2.034323      2.023208    -0.006341   -0.048012   -0.019773
            19    0       6.078824      0.001413      2.023757    -0.045259   -0.002396   -0.026488
            20    0       6.074502      2.027313     -0.003968     0.001569   -0.025561    0.009997
            21    0       4.046735      0.008153      4.047211     0.005850   -0.034914    0.010372
            22    0       4.051143      2.026379      6.077067    -0.006574   -0.014676   -0.016739
            23    0       6.079309     -0.003356      6.076502    -0.037913    0.000258   -0.016278
            24    0       6.068048      2.022871      4.042291     0.017808    0.015571    0.037058
            25    0       4.044378      4.045888     -0.000308     0.031356    0.022624   -0.014550
            26    0       4.050017      6.068469      2.023160     0.014033    0.042418    0.000714
            27    0       6.076797      4.046615      2.023538    -0.002709    0.004736   -0.004652
            28    0       6.081860      6.071811      0.003279    -0.055685    0.003747   -0.023111
            29    0       4.045991      4.048841      4.045326     0.018764    0.011510    0.032605
            30    0       4.043754      6.074056      6.069606     0.041110    0.002596    0.000971
            31    0       6.073720      4.045699      6.079875     0.000074    0.024134   -0.037059
            32    0       6.072232      6.073217      4.039912    -0.002730   -0.002772    0.049645
 Energy
       -107.516129018340
 PlusStress:  xx          yy          zz          yz          xz          xy
         0.00575     0.00590     0.00612    -0.00050     0.00238     0.00194
END_CFG

BEGIN_CFG
 Size
    32
 Supercell
         8.100000      0.000000      0.000000
         0.000000      8.100000      0.000000
         0.000000      0.000000      8.100000
 AtomData:  id type       cartes_x      cartes_y      cartes_z           fx          fy          fz
             1    0      -0.005869     -0.015327     -0.010859     0.039671    0.069649    0.058475
             2    0      -0.004902      2.020696      2.017913     0.061775    0.017572   -0.017482
             3    0       2.038029     -0.004244      2.027486    -0.067943    0.026643   -0.020330
             4    0       2.015981      2.027567     -0.010107    -0.000377   -0.028452    0.057201
             5    0      -0.018865      0.008936      4.042034     0.074630   -0.041453    0.011680
             6    0       0.006631      2.020722      6.065978    -0.048709    0.019892    0.013800
             7    0       2.013604     -0.002422      6.077213     0.027190    0.018109   -0.058634
             8    0       2.021943      2.032946      4.046847    -0.004897   -0.029890   -0.011838
             9    0       0.003071      4.053159      0.000087     0.017724   -0.028482   -0.000119
            10    0      -0.009953      6.072205      2.018811     0.074512    0.006252    0.026993
            11    0       2.043016      4.067397      2.019315    -0.124427   -0.065641    0.007365
            12    0       2.036052      6.076589     -0.004931    -0.049689   -0.006885    0.019460
            13    0      -0.001144      4.041192      4.047189    -0.014265    0.027656    0.003013
            14    0       0.000952      6.074210      6.078724    -0.029194   -0.034385   -0.060640
            15    0       2.026224      4.049502      6.076863    -0.020026    0.003463   -0.028081
            16    0       2.008558      6.074636      4.050049     0.023040    0.026521   -0.009977
            17    0       4.034019     -0.005134     -0.010740     0.093474    0.020376    0.044080
            18    0       4.048633      2.043630      2.021410    -0.013023   -0.096016   -0.039200
            19    0       6.082633      0.002825      2.022505    -0.089928   -0.004988   -0.053006
            20    0       6.074005      2.029618     -0.007932     0.003202   -0.051144    0.020230
            21    0       4.043471      0.016295      4.044425     0.011652   -0.069590    0.020908
            22    0       4.052283      2.027752      6.079128    -0.013151   -0.029246   -0.033517
            23    0       6.083605     -0.006711      6.077997    -0.075940    0.000714   -0.032491
            24    0       6.061103      2.020748      4.034596     0.035602    0.031127    0.073951
            25    0       4.038766      4.041784     -0.000620     0.062540    0.044876   -0.029443
            26    0       4.050038      6.061953      2.021320     0.028499    0.085070    0.000902
            27    0       6.078593      4.043232      2.022074    -0.005216    0.009468   -0.009295
            28    0       6.088700      6.068624      0.006550    -0.111003    0.007284   -0.045965
            29    0       4.041989      4.047686      4.040663     0.037426    0.022978    0.065475
            30    0       4.037523      6.073112      6.064212     0.081658    0.005355    0.001455
            31    0       6.072439      4.041407      6.084737     0.000387    0.048201   -0.073952
            32    0       6.069464      6.071434      4.029842    -0.005199   -0.005035    0.098982
 Energy
       -107.504555784625
 PlusStress:  xx          yy          zz          yz          xz          xy
         0.02052     0.02111     0.02202    -0.00201     0.00951     0.00770
END_CFG

BEGIN_CFG
 Size
    32
 Supercell
         8.100000      0.000000      0.000000
         0.000000      8.100000      0.000000
         0.000000      0.000000      8.100000
 AtomData:  id type       cartes_x      cartes_y      cartes_z           fx          fy          fz
             1    0      -0.008786     -0.022960     -0.016263     0.059169    0.104458    0.087593
             2    0      -0.007326      2.018551      2.014362     0.091770    0.025803   -0.025932
             3    0       2.044513     -0.006354      2.028719    -0.101663    0.039653   -0.030578
             4    0       2.011471      2.028837     -0.015135    -0.000081   -0.042587    0.085498
             5    0      -0.028264      0.013386      4.038056     0.111670   -0.062216    0.018059
             6    0       0.009925      2.018591      6.061474    -0.073069    0.029733    0.020836
             7    0       2.007918     -0.003625      6.078294     0.040758    0.026947   -0.087627
             8    0       2.020413      2.036905      4.045266    -0.007248   -0.044659   -0.017937
             9    0       0.004615      4.054725      0.000130     0.026667   -0.042727   -0.000040
            10    0      -0.014896      6.070811      2.015728     0.112112    0.009234    0.041135
            11    0       2.051968      4.076066      2.016475    -0.187200   -0.097612    0.011308
            12    0       2.041556      6.077381     -0.007387    -0.074624   -0.010520    0.028899
            13    0      -0.001722      4.036800      4.045784    -0.021601    0.041668    0.004396
            14    0       0.001415      6.073799      6.080558    -0.043251   -0.051949   -0.090455
            15    0       2.026827      4.049255      6.077781    -0.029908    0.005116   -0.042127
            16    0       2.000348      6.074465      4.050069     0.033994    0.039049   -0.015181
            17    0       4.026070     -0.007692     -0.016090     0.139959    0.031241    0.065136
            18    0       4.047944      2.052902      2.019597    -0.020024   -0.143899   -0.058223
            19    0       6.086409      0.004235      2.021233    -0.133885   -0.007776   -0.079451
            20    0       6.073508      2.031903     -0.011888     0.004906   -0.076681    0.030663
            21    0       4.040212      0.024411      4.041648     0.017399   -0.103976    0.031579
            22    0       4.053418      2.029115      6.081178    -0.019745   -0.043688   -0.050300
            23    0       6.087873     -0.010066      6.079481    -0.113966    0.001379   -0.048604
            24    0       6.054170      2.018636      4.026927     0.053362    0.046617    0.110582
            25    0       4.033178      4.037696     -0.000944     0.093467    0.066713   -0.044644
            26    0       4.050070      6.055467      2.019480     0.043345    0.127842    0.000591
            27    0       6.080387      4.039852      2.020607    -0.007530    0.014190   -0.013918
            28    0       6.095501      6.065439      0.009804    -0.165824    0.010612   -0.068539
            29    0       4.038000      4.046539      4.036024     0.055922    0.034371    0.098499
            30    0       4.031321      6.072170      6.058819     0.121525    0.008285    0.001493
            31    0       6.071159      4.037132      6.089573     0.000964    0.072144   -0.110598
            32    0       6.066693      6.069648      4.019807    -0.007370   -0.006766    0.147886
 Energy
       -107.485390316314
 PlusStress:  xx          yy          zz          yz          xz          xy
         0.04501     0.04629     0.04841    -0.00454     0.02132     0.01715
END_CFG

BEGIN_CFG
 Size
    32
 Supercell
         8.100000      0.000000      0.000000
         0.000000      8.100000      0.000000
         0.000000      0.000000      8.100000
 AtomData:  id type       cartes_x      cartes_y      cartes_z           fx          fy          fz
             1    0      -0.011682     -0.030555     -0.021635     0.078377    0.139146    0.116532
             2    0      -0.009717      2.016416      2.010802     0.121047    0.033643   -0.034114
             3    0       2.050961     -0.008450      2.029942    -0.135109    0.052404   -0.040862
             4    0       2.006962      2.030093     -0.020132     0.000600   -0.056635    0.113469
             5    0      -0.037623      0.017814      4.034085     0.148377   -0.082939    0.024775
             6    0       0.013192      2.016472      6.056977    -0.097385    0.039466    0.027955
             7    0       2.002247     -0.004819      6.079343     0.054293    0.035616   -0.116302
             8    0       2.018880      2.040848      4.043678    -0.009508   -0.059266   -0.024133
             9    0       0.006168      4.056277      0.000174     0.035575   -0.056922    0.000090
            10    0      -0.019799      6.069420      2.012661     0.149780    0.012152    0.055650
            11    0       2.060854      4.084700      2.013640    -0.250192   -0.129023    0.015462
            12    0       2.047033      6.078168     -0.009833    -0.099558   -0.014265    0.038076
            13    0      -0.002308      4.032423      4.044381    -0.029064    0.055772    0.005683
            14    0       0.001862      6.073370      6.082361    -0.056912   -0.069681   -0.119809
            15    0       2.027419      4.049009      6.078685    -0.039663    0.006705   -0.056132
            16    0       1.992149      6.074309      4.050083     0.044634    0.051037   -0.020517
            17    0       4.018172     -0.010239     -0.021416     0.186098    0.042533    0.085461
            18    0       4.047248      2.062122      2.017763    -0.027322   -0.191395   -0.076780
            19    0       6.090137      0.005642      2.019934    -0.177013   -0.010760   -0.105720
            20    0       6.073014      2.034162     -0.015834     0.006686   -0.102109    0.041260
            21    0       4.036959      0.032490      4.038881     0.023089   -0.138030    0.042363
            22    0       4.054547      2.030462      6.083209    -0.026371   -0.057975   -0.067049
            23    0       6.092101     -0.013421      6.080948    -0.151873    0.002266   -0.064586
            24    0       6.047257      2.016540      4.019297     0.071080    0.061996    0.146850
            25    0       4.027622      4.033632     -0.001283     0.124048    0.088093   -0.060110
            26    0       4.050117      6.049027      2.017641     0.058563    0.170516   -0.000189
            27    0       6.082179      4.036478      2.019134    -0.009661    0.018897   -0.018504
            28    0       6.102242      6.062257      0.013034    -0.220022    0.013739   -0.090809
            29    0       4.034031      4.045404      4.031421     0.074185    0.045653    0.131561
            30    0       4.025162      6.071232      6.053426     0.160595    0.011394    0.001125
            31    0       6.069880      4.032883      6.094369     0.001831    0.095917   -0.146918
            32    0       6.063920      6.067860      4.009826    -0.009204   -0.007945    0.196223
 Energy
       -107.458812120087
 PlusStress:  xx          yy          zz          yz          xz          xy
         0.07923     0.08077     0.08517    -0.00807     0.03772     0.03024
END_CFG

BEGIN_CFG
 Size
    32
 Supercell
         8.100000      0.000000      0.000000
         0.000000      8.100000      0.000000
         0.000000      0.000000      8.100000
 AtomData:  id type       cartes_x      cartes_y      cartes_z           fx          fy          fz
             1    0      -0.014550     -0.038100     -0.026966     0.097248    0.173616    0.145212
             2    0      -0.012064      2.014293      2.007229     0.149518    0.041078   -0.041974
             3    0       2.057360     -0.010527      2.031150    -0.168201    0.064847   -0.051169
             4    0       2.002452      2.031328     -0.025089     0.001710   -0.070578    0.141022
             5    0      -0.046929      0.022211      4.030123     0.184658   -0.103575    0.031804
             6    0       0.016425      2.014366      6.052489    -0.121623    0.049066    0.035152
             7    0       1.996595     -0.005999      6.080350     0.067796    0.044096   -0.144578
             8    0       2.017343      2.044771      4.042081    -0.011656   -0.073684   -0.030409
             9    0       0.007734      4.057808      0.000217     0.044378   -0.071028    0.000237
            10    0      -0.024648      6.068033      2.009613     0.187388    0.015030    0.070492
            11    0       2.069650      4.093289      2.010810    -0.314290   -0.160864    0.019850
            12    0       2.052474      6.078951     -0.012266    -0.124441   -0.018099    0.046940
            13    0      -0.002905      4.028066      4.042981    -0.036650    0.069946    0.006865
            14    0       0.002290      6.072917      6.084120    -0.070159   -0.087519   -0.148614
            15    0       2.027997      4.048766      6.079568    -0.049268    0.008225   -0.070067
            16    0       1.983967      6.074171      4.050091     0.055029    0.062463   -0.025982
            17    0       4.010340     -0.012770     -0.026712     0.231758    0.054224    0.105010
            18    0       4.046542      2.071274      2.015902    -0.034893   -0.238139   -0.094813
            19    0       6.093802      0.007046      2.018596    -0.219209   -0.013941   -0.131708
            20    0       6.072522      2.036384     -0.019765     0.008555   -0.127357    0.051990
            21    0       4.033714      0.040519      4.036129     0.028720   -0.171716    0.053231
            22    0       4.055666      2.031788      6.085216    -0.033044   -0.072084   -0.083728
            23    0       6.096274     -0.016775      6.082392    -0.189552    0.003381   -0.080409
            24    0       6.040369      2.014467      4.011720     0.088750    0.077224    0.182665
            25    0       4.022111      4.029600     -0.001644     0.154205    0.108983   -0.075802
            26    0       4.050185      6.042648      2.015802     0.075139    0.213750   -0.001403
            27    0       6.083967      4.033110      2.017656    -0.011626    0.023588   -0.023036
            28    0       6.108904      6.059081      0.016231    -0.273484    0.016680   -0.112559
            29    0       4.030089      4.044286      4.026864     0.092155    0.056793    0.164546
            30    0       4.019061      6.070297      6.048034     0.198757    0.014686    0.000397
            31    0       6.068600      4.028668      6.099113     0.003002    0.119472   -0.182834
            32    0       6.061143      6.066070      3.999914    -0.010669   -0.008563    0.243674
 Energy
       -107.425060882996
 PlusStress:  xx          yy          zz          yz          xz          xy
         0.12463     0.12479     0.13093    -0.01259     0.05853     0.04883
END_CFG

BEGIN_CFG
 Size
    32
 Supercell
         8.100000      0.000000      0.000000
         0.000000      8.100000      0.000000
         0.000000      0.000000      8.100000
 AtomData:  id type       cartes_x      cartes_y      cartes_z           fx          fy          fz
             1    0      -0.017383     -0.045583     -0.032245     0.115737    0.207754    0.173552
             2    0      -0.014358      2.012184      2.003641     0.177101    0.048092   -0.049462
             3    0       2.063699     -0.012581      2.032340    -0.200867    0.076804   -0.061489
             4    0       1.997943      2.032538     -0.029995     0.003293   -0.084402    0.168073
             5    0      -0.056168      0.026572      4.026172     0.220436   -0.124072    0.039148
             6    0       0.019614      2.012278      6.048015    -0.145752    0.058505    0.042425
             7    0       1.990967     -0.007164      6.081306     0.081177    0.052369   -0.172386
             8    0       2.015802      2.048666      4.040474    -0.013668   -0.087893   -0.036749
             9    0       0.009315      4.059313      0.000260     0.053005   -0.084980    0.000365
            10    0      -0.029431      6.066652      2.006590     0.225210    0.017893    0.086018
            11    0       2.078333      4.101819      2.007987    -0.379806   -0.193309    0.024610
            12    0       2.057871      6.079727     -0.014682    -0.149347   -0.022128    0.055443
            13    0      -0.003514      4.023734      4.041582    -0.044349    0.084158    0.007933
            14    0       0.002692      6.072431      6.085827    -0.082980   -0.105393   -0.176780
            15    0       2.028557      4.048525      6.080427    -0.058697    0.009670   -0.083900
            16    0       1.975804      6.074055      4.050089     0.065238    0.073297   -0.031567
            17    0       4.002591     -0.015282     -0.031971     0.276935    0.066413    0.123735
            18    0       4.045824      2.080341      2.014008    -0.042713   -0.284028   -0.112259
            19    0       6.097388      0.008444      2.017211    -0.260393   -0.017316   -0.157340
            20    0       6.072033      2.038560     -0.023678     0.010520   -0.152364    0.062817
            21    0       4.030480      0.048487      4.033397     0.034284   -0.204958    0.064150
            22    0       4.056773      2.033089      6.087193    -0.039779   -0.085992   -0.100300
            23    0       6.100379     -0.020128      6.083807    -0.226815    0.004734   -0.096047
            24    0       6.033512      2.012421      4.004209     0.106353    0.092255    0.217938
            25    0       4.016655      4.025606     -0.002032     0.183977    0.129347   -0.091792
            26    0       4.050280      6.036346      2.013962     0.093383    0.257802   -0.003017
            27    0       6.085751      4.029751      2.016168    -0.013444    0.028260   -0.027497
            28    0       6.115469      6.055911      0.019388    -0.326482    0.019438   -0.134096
            29    0       4.026179      4.043188      4.022366     0.109772    0.067731    0.197334
            30    0       4.013031      6.069368      6.042642     0.235910    0.018166   -0.000638
            31    0       6.067322      4.024496      6.103791     0.004488    0.142757   -0.218269
            32    0       6.058363      6.064276      3.990090    -0.011730   -0.008611    0.290049
 Energy
       -107.384421311408
 PlusStress:  xx          yy          zz          yz          xz          xy
         0.18249     0.17812     0.18609    -0.01805     0.08413     0.07369
END_CFG

BEGIN_CFG
 Size
    32
 Supercell
         8.100000      0.000000      0.000000
         0.000000      8.100000      0.000000
         0.000000      0.000000      8.100000
 AtomData:  id type       cartes_x      cartes_y      cartes_z           fx          fy          fz
             1    0      -0.020174     -0.052992     -0.037461     0.133913    0.241537    0.201655
             2    0      -0.016589      2.010093      2.000036     0.203717    0.054675   -0.056527
             3    0       2.069967     -0.014608      2.033508    -0.233051    0.088208   -0.071827
             4    0       1.993436      2.033718     -0.034842     0.005386   -0.098085    0.194534
             5    0      -0.065330      0.030889      4.022235     0.256016   -0.144288    0.047203
             6    0       0.022751      2.010211      6.043555    -0.169736    0.067763    0.049770
             7    0       1.985368     -0.008310      6.082200     0.094344    0.060415   -0.199655
             8    0       2.014257      2.052531      4.038853    -0.015526   -0.101866   -0.043135
             9    0       0.010916      4.060789      0.000304     0.061386   -0.098628    0.000443
            10    0      -0.034133      6.065277      2.003598     0.263499    0.020768    0.102571
            11    0       2.086881      4.110281      2.005173    -0.447079   -0.226171    0.030123
            12    0       2.063215      6.080495     -0.017078    -0.174730   -0.026858    0.063546
            13    0      -0.004140      4.019432      4.040187    -0.052153    0.098290    0.008882
            14    0       0.003064      6.071908      6.087470    -0.095364   -0.123363   -0.204346
            15    0       2.029097      4.048289      6.081256    -0.067924    0.011037   -0.097599
            16    0       1.967665      6.073966      4.050075     0.075308    0.083513   -0.037261
            17    0       3.994941     -0.017771     -0.037185     0.322007    0.079593    0.141595
            18    0       4.045090      2.089307      2.012073    -0.050745   -0.329153   -0.128869
            19    0       6.100882      0.009837      2.015770    -0.300880   -0.020885   -0.182943
            20    0       6.071547      2.040682     -0.027568     0.012581   -0.177405    0.074039
            21    0       4.027258      0.056382      4.030687     0.039744   -0.237640    0.075104
            22    0       4.057866      2.034359      6.089135    -0.046585   -0.099675   -0.116728
            23    0       6.104404     -0.023479      6.085187    -0.263526    0.006329   -0.111532
            24    0       6.026694      2.010408      3.996775     0.123919    0.107087    0.252573
            25    0       4.011265      4.021659     -0.002453     0.213762    0.149316   -0.108719
            26    0       4.050409      6.030135      2.012121     0.113160    0.302492   -0.004992
            27    0       6.087530      4.026401      2.014672    -0.015128    0.032908   -0.031878
            28    0       6.121917      6.052747      0.022497    -0.379324    0.021956   -0.155807
            29    0       4.022309      4.042115      4.017938     0.127105    0.078322    0.229934
            30    0       4.007085      6.068445      6.037249     0.271958    0.021835   -0.001928
            31    0       6.066046      4.020375      6.108391     0.006304    0.166063   -0.253479
            32    0       6.055579      6.062479      3.980369    -0.012358   -0.008088    0.335254
 Energy
       -107.337216840614
 PlusStress:  xx          yy          zz          yz          xz          xy
         0.25589     0.24132     0.25462    -0.02518     0.11535     0.10556
END_CFG

BEGIN_CFG
 Size
    32
 Supercell
         8.100000      0.000000      0.000000
         0.000000      8.100000      0.000000
         0.000000      0.000000      8.100000
 AtomData:  id type       cartes_x      cartes_y      cartes_z           fx          fy          fz
             1    0      -0.022918     -0.060315     -0.042606     0.152403    0.275537    0.230118
             2    0      -0.018747      2.008022      1.996411     0.229290    0.060815   -0.063118
             3    0       2.076151     -0.016603      2.034650    -0.264976    0.099025   -0.082483