BEGIN_CFG
 Size
    32
 Supercell
         8.100000      0.000000      0.000000
         0.000000      8.100000      0.000000
         0.000000      0.000000      8.100000
 AtomData:  id type       cartes_x      cartes_y      cartes_z           fx          fy          fz
             1    0       0.000000      0.000000      0.000000    -0.000000   -0.000000   -0.000000
             2    1       0.000000      2.025000      2.025000    -0.000000    0.000000   -0.000000
             3    0       2.025000      0.000000      2.025000    -0.000000   -0.000000   -0.000000
             4    1       2.025000      2.025000      0.000000    -0.000000    0.000000    0.000000
             5    0       0.000000      0.000000      4.050000    -0.000000   -0.000000   -0.000000
             6    1       0.000000      2.025000      6.075000    -0.000000   -0.000000    0.000000
             7    0       2.025000      0.000000      6.075000    -0.000000   -0.000000    0.000000
             8    1       2.025000      2.025000      4.050000    -0.000000    0.000000   -0.000000
             9    0       0.000000      4.050000      0.000000    -0.000000   -0.000000   -0.000000
            10    1       0.000000      6.075000      2.025000    -0.000000    0.000000   -0.000000
            11    0       2.025000      4.050000      2.025000    -0.000000   -0.000000   -0.000000
            12    1       2.025000      6.075000      0.000000    -0.000000    0.000000   -0.000000
            13    0       0.000000      4.050000      4.050000    -0.000000   -0.000000   -0.000000
            14    1       0.000000      6.075000      6.075000    -0.000000    0.000000    0.000000
            15    0       2.025000      4.050000      6.075000    -0.000000   -0.000000    0.000000
            16    1       2.025000      6.075000      4.050000    -0.000000    0.000000   -0.000000
            17    0       4.050000      0.000000      0.000000    -0.000000   -0.000000   -0.000000
            18    1       4.050000      2.025000      2.025000    -0.000000    0.000000   -0.000000
            19    0       6.075000      0.000000      2.025000     0.000000   -0.000000   -0.000000
            20    1       6.075000      2.025000      0.000000     0.000000    0.000000   -0.000000
            21    0       4.050000      0.000000      4.050000    -0.000000   -0.000000   -0.000000
            22    1       4.050000      2.025000      6.075000    -0.000000    0.000000    0.000000
            23    0       6.075000      0.000000      6.075000     0.000000   -0.000000    0.000000
            24    1       6.075000      2.025000      4.050000     0.000000    0.000000   -0.000000
            25    0       4.050000      4.050000      0.000000    -0.000000   -0.000000   -0.000000
            26    1       4.050000      6.075000      2.025000    -0.000000    0.000000   -0.000000
            27    0       6.075000      4.050000      2.025000     0.000000   -0.000000   -0.000000
            28    1       6.075000      6.075000      0.000000     0.000000    0.000000   -0.000000
            29    0       4.050000      4.050000      4.050000    -0.000000   -0.000000   -0.000000
            30    1       4.050000      6.075000      6.075000    -0.000000    0.000000    0.000000
            31    0       6.075000      4.050000      6.075000     0.000000   -0.000000    0.000000
            32    1       6.075000      6.075000      4.050000     0.000000    0.000000   -0.000000
 Energy
        -96.804917786370
 PlusStress:  xx          yy          zz          yz          xz          xy
      -162.82249  -266.73443  -162.82249     0.00000     0.00000     0.00000
END_CFG

BEGIN_CFG
 Size
    32
 Supercell
         8.100000      0.000000      0.000000
         0.000000      8.100000      0.000000
         0.000000      0.000000      8.100000
 AtomData:  id type       cartes_x      cartes_y      cartes_z           fx          fy          fz
             1    0      -0.003986      0.001006     -0.002445     0.055791   -0.006081    0.056567
             2    1       0.000316      2.027166      2.021586    -0.031715   -0.062930    0.028350
             3    0       2.031442     -0.001045      2.022048    -0.098894    0.021262    0.036810
             4    1       2.027080      2.025576     -0.001100    -0.062940    0.005307   -0.023132
             5    0      -0.000619      0.001541      4.049513     0.009692    0.005072   -0.012752
             6    1      -0.001773      2.027682      6.073853     0.032470   -0.000005   -0.004635
             7    0       2.021675     -0.005093      6.077830     0.031988    0.079409   -0.046549
             8    1       2.026826      2.027113      4.050964    -0.031982   -0.043015   -0.030444
             9    0      -0.001438      4.051688      0.001175     0.028027   -0.023681   -0.055573
            10    1       0.001415      6.072480      2.030467    -0.017001    0.071341   -0.075403
            11    0       2.014708      4.045900      2.019644     0.124913    0.051242    0.066795
            12    1       2.024210      6.075421     -0.001560    -0.009527   -0.017390    0.003033
            13    0      -0.005697      4.056974      4.048254     0.082081   -0.091963    0.035761
            14    1      -0.000268      6.076350      6.074286    -0.005090   -0.033998   -0.000395
            15    0       2.032840      4.049486      6.067171    -0.107912    0.013802    0.091402
            16    1       2.024224      6.076625      4.049773     0.000774   -0.018731   -0.026046
            17    0       4.042367      0.008392     -0.000363     0.105606   -0.130341    0.000111
            18    1       4.049547      2.025082      2.021888     0.001158    0.021049    0.031167
            19    0       6.068724     -0.006919      2.027339     0.073733    0.084572   -0.028226
            20    1       6.072872      2.023117     -0.000626     0.006797    0.036472    0.010587
            21    0       4.051192     -0.002454      4.047348    -0.008256    0.034652    0.056676
            22    1       4.050685      2.023157      6.076797    -0.010750    0.008981   -0.049062
            23    0       6.081472      0.002626      6.077624    -0.093693   -0.046478   -0.036751
            24    1       6.075744      2.029119      4.051711    -0.015295   -0.056742   -0.042796
            25    0       4.045773      4.049438     -0.000027     0.060090    0.016271    0.006469
            26    1       4.046458      6.072426      2.027465     0.008514   -0.005355   -0.055399
            27    0       6.080203      4.051119      2.022364    -0.082076   -0.030561    0.020865
            28    1       6.081076      6.073473      0.004049    -0.091159    0.020527   -0.060410
            29    0       4.048022      4.050241      4.046470     0.019655   -0.005882    0.018795
            30    1       4.048511      6.075500      6.078261     0.030684    0.012060   -0.035318
            31    0       6.072959      4.047943      6.070274     0.009554    0.044997    0.074634
            32    1       6.074519      6.071914      4.046117    -0.015238    0.046137    0.044868
 Energy
        -96.797280232743
 PlusStress:  xx          yy          zz          yz          xz          xy
      -162.72230  -266.54226  -162.73998    -0.00390    -0.00133    -0.01144
END_CFG

BEGIN_CFG
 Size
    32
 Supercell
         8.100000      0.000000      0.000000
         0.000000      8.100000      0.000000
         0.000000      0.000000      8.100000
 AtomData:  id type       cartes_x      cartes_y      cartes_z           fx          fy          fz
             1    0      -0.007953      0.002010     -0.004870     0.112374   -0.007760    0.109146
             2    1       0.000628      2.029323      2.018176    -0.065819   -0.126857    0.055774
             3    0       2.037848     -0.002083      2.019110    -0.196429    0.040789    0.072530
             4    1       2.029151      2.026153     -0.002204    -0.134523    0.015156   -0.047325
             5    0      -0.001235      0.003084      4.049021     0.019492    0.009982   -0.024831
             6    1      -0.003542      2.030364      6.072705     0.065001    0.000378   -0.008494
             7    0       2.018362     -0.010157      6.080643     0.065553    0.159416   -0.092882
             8    1       2.028647      2.029220      4.051922    -0.060544   -0.090493   -0.065536
             9    0      -0.002865      4.053368      0.002330     0.058504   -0.048657   -0.111353
            10    1       0.002827      6.069970      2.035922    -0.035942    0.149350   -0.154960
            11    0       2.004461      4.041818      2.014311     0.257350    0.105367    0.132142
            12    1       2.023419      6.075839     -0.003120    -0.018680   -0.036489    0.010326
            13    0      -0.011365      4.063915      4.046521     0.166501   -0.191990    0.079402
            14    1      -0.000537      6.077696      6.073572    -0.014077   -0.067034   -0.000456
            15    0       2.040641      4.048977      6.059374    -0.213504    0.027354    0.184137
            16    1       2.023448      6.078247      4.049542     0.001406   -0.033541   -0.049566
            17    0       4.034771      0.016737     -0.000725     0.202730   -0.254884   -0.004046
            18    1       4.049094      2.025167      2.018782     0.002889    0.043948    0.066037
            19    0       6.062475     -0.013808      2.029668     0.141073    0.162731   -0.059550
            20    1       6.070745      2.021239     -0.001250     0.013403    0.076255    0.021415
            21    0       4.052382     -0.004897      4.044717    -0.017239    0.067793    0.112969
            22    1       4.051369      2.021314      6.078587    -0.019215    0.021955   -0.100016
            23    0       6.087911      0.005236      6.080234    -0.186660   -0.087329   -0.071733
            24    1       6.076486      2.033230      4.053416    -0.029815   -0.113974   -0.086956
            25    0       4.041567      4.048882     -0.000052     0.118498    0.031893    0.012600
            26    1       4.042918      6.069852      2.029922     0.018755   -0.015321   -0.107782
            27    0       6.085377      4.052227      2.019735    -0.164414   -0.064339    0.043314
            28    1       6.087137      6.071949      0.008088    -0.167639    0.031764   -0.120938
            29    0       4.046051      4.050481      4.042947     0.040375   -0.013043    0.036733
            30    1       4.047027      6.076002      6.081516     0.060277    0.023521   -0.069533
            31    0       6.070921      4.045902      6.065575     0.018019    0.092090    0.150584
            32    1       6.074035      6.068835      4.042240    -0.037701    0.091969    0.088848
 Energy
        -96.774522625994
 PlusStress:  xx          yy          zz          yz          xz          xy
      -162.42351  -265.96913  -162.49396    -0.01561    -0.00519    -0.04562
END_CFG

BEGIN_CFG
 Size
    32
 Supercell
         8.100000      0.000000      0.000000
         0.000000      8.100000      0.000000
         0.000000      0.000000      8.100000
 AtomData:  id type       cartes_x      cartes_y      cartes_z           fx          fy          fz
             1    0      -0.011879      0.003012     -0.007256     0.169330   -0.005153    0.157367
             2    1       0.000930      2.031460      2.014775    -0.102004   -0.191439    0.082189
             3    0       2.044184     -0.003107      2.016197    -0.291965    0.058507    0.106935
             4    1       2.031202      2.026732     -0.003315    -0.214098    0.029414   -0.072306
             5    0      -0.001843      0.004631      4.048521     0.029309    0.014690   -0.036124
             6    1      -0.005300      2.033046      6.071556     0.097334    0.000991   -0.011534
             7    0       2.015072     -0.015164      6.083423     0.100489    0.239496   -0.138746
             8    1       2.030459      2.031313      4.052871    -0.085681   -0.142099   -0.104946
             9    0      -0.004272      4.055030      0.003445     0.091193   -0.074782   -0.166904
            10    1       0.004234      6.067483      2.041354    -0.056554    0.233294   -0.238203
            11    0       1.994306      4.037774      2.009026     0.396188    0.162010    0.195538
            12    1       2.022624      6.076252     -0.004678    -0.027413   -0.057102    0.021831
            13    0      -0.016973      4.070787      4.044816     0.252629   -0.299300    0.130456
            14    1      -0.000808      6.079031      6.072858    -0.026861   -0.098892   -0.000165
            15    0       2.048365      4.048478      6.051643    -0.315965    0.040620    0.277524
            16    1       2.022672      6.079863      4.049304     0.001962   -0.044447   -0.070370
            17    0       4.027248      0.024990     -0.001089     0.290747   -0.372816   -0.012418
            18    1       4.048641      2.025259      2.015685     0.005221    0.068410    0.104405
            19    0       6.056276     -0.020639      2.031976     0.201679    0.234044   -0.093755
            20    1       6.068620      2.019373     -0.001872     0.019830    0.119054    0.032389
            21    0       4.053565     -0.007314      4.042125    -0.026945    0.099250    0.168457
            22    1       4.052049      2.019476      6.080362    -0.025417    0.038830   -0.152528
            23    0       6.094283      0.007814      6.082819    -0.278241   -0.122374   -0.104737
            24    1       6.077223      2.037324      4.055108    -0.043470   -0.171383   -0.132194
            25    0       4.037404      4.048338     -0.000072     0.174859    0.046753    0.018290
            26    1       4.039381      6.067275      2.032363     0.030719   -0.029539   -0.156934
            27    0       6.090493      4.053312      2.017122    -0.246442   -0.101052    0.067217
            28    1       6.093173      6.070430      0.012109    -0.229243    0.034024   -0.181139
            29    0       4.044095      4.050715      4.039436     0.062019   -0.021450    0.053853
            30    1       4.045551      6.076507      6.084762     0.088568    0.034295   -0.102536
            31    0       6.068889      4.043893      6.060930     0.025344    0.140916    0.227328
            32    1       6.073546      6.065770      4.038377    -0.067120    0.137233    0.131760
 Energy
        -96.737107575426
 PlusStress:  xx          yy          zz          yz          xz          xy
      -161.93175  -265.02575  -162.08893    -0.03514    -0.01131    -0.10209
END_CFG

BEGIN_CFG
 Size
    32
 Supercell
         8.100000      0.000000      0.000000
         0.000000      8.100000      0.000000
         0.000000      0.000000      8.100000
 AtomData:  id type       cartes_x      cartes_y      cartes_z           fx          fy          fz
             1    0      -0.015744      0.004011     -0.009586     0.226226    0.001561    0.200926
             2    1       0.001216      2.033568      2.011386    -0.139882   -0.256290    0.107514
             3    0       2.050415     -0.004109      2.013322    -0.384889    0.074375    0.139824
             4    1       2.033220      2.027316     -0.004437    -0.300815    0.047870   -0.097806
             5    0      -0.002442      0.006183      4.048007     0.039055    0.019169   -0.046530
             6    1      -0.007044      2.035728      6.070405     0.129205    0.001691   -0.013741
             7    0       2.011818     -0.020086      6.086153     0.136555    0.319120   -0.183887
             8    1       2.032258      2.033384      4.053804    -0.107473   -0.197414   -0.148254
             9    0      -0.005646      4.056666      0.004501     0.125845   -0.101910   -0.221784
            10    1       0.005632      6.065031      2.046750    -0.078290    0.322162   -0.324246
            11    0       1.984293      4.033788      2.003811     0.539983    0.220676    0.256400
            12    1       2.021826      6.076655     -0.006232    -0.035682   -0.079003    0.037400
            13    0      -0.022491      4.077553      4.043158     0.339794   -0.412913    0.188288
            14    1      -0.001083      6.080351      6.072144    -0.043256   -0.129369    0.000504
            15    0       2.055977      4.047994      6.044011    -0.414421    0.053521    0.370707
            16    1       2.021896      6.081473      4.049054     0.002508   -0.051555   -0.088315
            17    0       4.019829      0.033111     -0.001458     0.368819   -0.483206   -0.025036
            18    1       4.048189      2.025361      2.012604     0.008172    0.094123    0.145998
            19    0       6.050150     -0.027387      2.034250     0.255289    0.298175   -0.130570
            20    1       6.066498      2.017525     -0.002488     0.026037    0.164471    0.043448
            21    0       4.054739     -0.009697      4.039594    -0.037349    0.128862    0.222731
            22    1       4.052726      2.017643      6.082113    -0.029432    0.059428   -0.206241
            23    0       6.100555      0.010349      6.085367    -0.367802   -0.151525   -0.135577
            24    1       6.077954      2.041391      4.056780    -0.056194   -0.228634   -0.178173
            25    0       4.033303      4.047810     -0.000085     0.228832    0.060763    0.023435
            26    1       4.035848      6.064694      2.034780     0.044343   -0.047566   -0.202691
            27    0       6.095520      4.054362      2.014533    -0.327467   -0.140353    0.092424
            28    1       6.099175      6.068916      0.016103    -0.276022    0.027745   -0.240608
            29    0       4.042161      4.050942      4.035945     0.084422   -0.031074    0.070211
            30    1       4.044090      6.077018      6.087991     0.115458    0.044404   -0.134085
            31    0       6.066867      4.041936      6.056367     0.031498    0.191088    0.304314
            32    1       6.073047      6.062725      4.034535    -0.103066    0.181607    0.173424
 Energy
        -96.685803246948
 PlusStress:  xx          yy          zz          yz          xz          xy
      -161.25470  -263.72870  -161.53053    -0.06231    -0.01896    -0.18070
END_CFG

BEGIN_CFG
 Size
    32
 Supercell
         8.100000      0.000000      0.000000
         0.000000      8.100000      0.000000
         0.000000      0.000000      8.100000
 AtomData:  id type       cartes_x      cartes_y      cartes_z           fx          fy          fz
             1    0      -0.019529      0.005011     -0.011844     0.282635    0.012117    0.239599
             2    1       0.001481      2.035637      2.008014    -0.178966   -0.320986    0.131688
             3    0       2.056509     -0.005085      2.010498    -0.474490    0.088383    0.171018
             4    1       2.035192      2.027906     -0.005574    -0.393477    0.070335   -0.123650
             5    0      -0.003026      0.007742      4.047477     0.048654    0.023415   -0.055969
             6    1      -0.008768      2.038410      6.069251     0.160359    0.002356   -0.015140
             7    0       2.008613     -0.024894      6.088818     0.173482    0.397742   -0.228065
             8    1       2.034041      2.035425      4.054715    -0.125974   -0.255895   -0.194910
             9    0      -0.006976      4.058265      0.005477     0.162201   -0.129893   -0.275557
            10    1       0.007019      6.062629      2.052097    -0.100808    0.414961   -0.412023
            11    0       1.974473      4.029881      1.998688     0.686716    0.280687    0.314095
            12    1       2.021022      6.077047     -0.007781    -0.043455   -0.101927    0.056788
            13    0      -0.027888      4.084171      4.041567     0.427130   -0.531578    0.252022
            14    1      -0.001365      6.081651      6.071430    -0.062972   -0.158272    0.001560
            15    0       2.063441      4.047528      6.036512    -0.507832    0.066000    0.462629
            16    1       2.021121      6.083076      4.048792     0.003108   -0.055050   -0.103305
            17    0       4.012541      0.041059     -0.001835     0.436283   -0.585156   -0.041576
            18    1       4.047739      2.025477      2.009545     0.011741    0.120757    0.190451
            19    0       6.044115     -0.034027      2.036477     0.301321    0.354745   -0.169627
            20    1       6.064380      2.015703     -0.003098     0.031782    0.211982    0.054625
            21    0       4.055899     -0.012033      4.037143    -0.048425    0.156492    0.275403
            22    1       4.053398      2.015819      6.083833    -0.031215    0.083410   -0.260651
            23    0       6.106696      0.012829      6.087866    -0.454735   -0.174772   -0.164090
            24    1       6.078676      2.045424      4.058425    -0.067935   -0.285354   -0.224504
            25    0       4.029284      4.047304     -0.000091     0.280121    0.073823    0.027944
            26    1       4.032322      6.062105      2.037166     0.059496   -0.068893   -0.244941
            27    0       6.100430      4.055360      2.011977    -0.406634   -0.181844    0.118761
            28    1       6.105134      6.067407      0.020060    -0.308041    0.013552   -0.299056
            29    0       4.040257      4.051158      4.032479     0.107389   -0.041898    0.085861
            30    1       4.042645      6.077535      6.091200     0.140935    0.053990   -0.163813
            31    0       6.064855      4.040046      6.051912     0.036445    0.242157    0.380912
            32    1       6.072532      6.059709      4.030718    -0.144838    0.224615    0.213521
 Energy
        -96.621692635621
 PlusStress:  xx          yy          zz          yz          xz          xy
      -160.40105  -262.09951  -160.82395    -0.09644    -0.02850    -0.27981
END_CFG

BEGIN_CFG
 Size
    32
 Supercell
         8.100000      0.000000      0.000000
         0.000000      8.100000      0.000000
         0.000000      0.000000      8.100000
 AtomData:  id type       cartes_x      cartes_y      cartes_z           fx          fy          fz
             1    0      -0.023212      0.006016     -0.014016     0.338122    0.026206    0.273228
             2    1       0.001718      2.037658      2.004661    -0.217247   -0.383595    0.154652
             3    0       2.062433     -0.006029      2.007735    -0.560040    0.100481    0.200344
             4    1       2.037104      2.028508     -0.006730    -0.487959    0.093416   -0.149552
             5    0      -0.003593      0.009309      4.046927     0.058035    0.027440   -0.064371
             6    1      -0.010468      2.041093      6.068096     0.190604    0.002960   -0.015910
             7    0       2.005470     -0.029559      6.091401     0.210859    0.474770   -0.270946
             8    1       2.035804      2.037428      4.055596    -0.141285   -0.316904   -0.244271
             9    0      -0.008247      4.059818      0.006355     0.200000   -0.158599   -0.327785
            10    1       0.008390      6.060289      2.057381    -0.123800    0.509447   -0.499570
            11    0       1.964898      4.026074      1.993677     0.833111    0.340110    0.368065
            12    1       2.020212      6.077424     -0.009322    -0.050697   -0.125581    0.079660
            13    0      -0.033132      4.090598      4.040066     0.513799   -0.652806    0.319600
            14    1      -0.001656      6.082927      6.070717    -0.085530   -0.185486    0.002957
            15    0       2.070722      4.047087      6.029178    -0.595562    0.078012    0.552631
            16    1       2.020346      6.084669      4.048513     0.003797   -0.055214   -0.115309
            17    0       4.005410      0.048797     -0.002228     0.489700   -0.674826   -0.061644
            18    1       4.047290      2.025612      2.006515     0.015989    0.147985    0.237245
            19    0       6.038187     -0.040541      2.038644     0.339415    0.403504   -0.210529
            20    1       6.062267      2.013912     -0.003699     0.037056    0.261122    0.065849
            21    0       4.057042     -0.014313      4.034790    -0.060129    0.182018    0.326102
            22    1       4.054066      2.014008      6.085514    -0.030769    0.110357   -0.315191
            23    0       6.112674      0.015247      6.090306    -0.538408   -0.192172   -0.190138
            24    1       6.079388      2.049414      4.060035    -0.078642   -0.341138   -0.270647
            25    0       4.025365      4.046824     -0.000086     0.328463    0.085841    0.031733
            26    1       4.028805      6.059506      2.039515     0.075979   -0.092964   -0.283616
            27    0       6.105194      4.056294      2.009464    -0.483368   -0.225085    0.146023
            28    1       6.111047      6.065899      0.023971    -0.325604   -0.007892   -0.356051
            29    0       4.038391      4.051359      4.029044     0.130644   -0.053975    0.100747
            30    1       4.041223      6.078060      6.094384     0.164890    0.063126   -0.191603
            31    0       6.062857      4.038243      6.047593     0.040087    0.293608    0.456408
            32    1       6.071995      6.056726      4.026934    -0.191513    0.265833    0.251891
 Energy
        -96.546175131544
 PlusStress:  xx          yy          zz          yz          xz          xy
      -159.39138  -260.17668  -159.97942    -0.13501    -0.03926    -0.39520
END_CFG

BEGIN_CFG
 Size
    32
 Supercell
         8.100000      0.000000      0.000000
         0.000000      8.100000      0.000000
         0.000000      0.000000      8.100000
 AtomData:  id type       cartes_x      cartes_y      cartes_z           fx          fy          fz
             1    0      -0.026775      0.007029     -0.016090     0.392472    0.043445    0.301932
             2    1       0.001923      2.039620      2.001332    -0.246641   -0.436009    0.176281
             3    0       2.068157     -0.006937      2.005043    -0.641384    0.110682    0.228006
             4    1       2.038943      2.029124     -0.007908    -0.575764    0.109255   -0.175185
             5    0      -0.004139      0.010886      4.046354     0.067138    0.031279   -0.071688
             6    1      -0.012139      2.043776      6.066938     0.219710    0.003451   -0.016147
             7    0       2.002403     -0.034054      6.093887     0.248099    0.549589   -0.312194
             8    1       2.037546      2.039382      4.056440    -0.153710   -0.379807   -0.295699
             9    0      -0.009446      4.061314      0.007116     0.238816   -0.187903   -0.378215
            10    1       0.009742      6.058027      2.062589    -0.147205    0.596954   -0.578735
            11    0       1.955621      4.022389      1.988797     0.970431    0.390864    0.418276
            12    1       2.019394      6.077781     -0.010850    -0.057381   -0.149642    0.105589
            13    0      -0.038192      4.096792      4.038680     0.595830   -0.764483    0.382609
            14    1      -0.001961      6.084176      6.070003    -0.110525   -0.210825    0.004713
            15    0       2.077791      4.046673      6.022042    -0.677109    0.089475    0.640118
            16    1       2.019572      6.086255      4.048218     0.004532   -0.052430   -0.124374
            17    0       3.998454      0.056294     -0.002642     0.521849   -0.744053   -0.085274
            18    1       4.046844      2.025769      2.003522     0.020993    0.175466    0.285752
            19    0       6.032381     -0.046910      2.040736     0.369698    0.444433   -0.252913
            20    1       6.060159      2.012161     -0.004290     0.041884    0.311429    0.077028
            21    0       4.058163     -0.016528      4.032554    -0.072455    0.205382    0.374406
            22    1       4.054729      2.012213      6.087147    -0.028352    0.139931   -0.369481
            23    0       6.118460      0.017597      6.092679    -0.618287   -0.203813   -0.213740
            24    1       6.080088      2.053351      4.061605    -0.088209   -0.395515   -0.316137
            25    0       4.021563      4.046375     -0.000070     0.373627    0.096649    0.034727
            26    1       4.025300      6.056893      2.041821     0.093514   -0.119221   -0.318684
            27    0       6.109786      4.057148      2.007003    -0.557071   -0.269592    0.173873
            28    1       6.116910      6.064390      0.027829    -0.329196   -0.036091   -0.411180
            29    0       4.036572      4.051540      4.025645     0.153973   -0.067309    0.114927
            30    1       4.039825      6.078595      6.097539     0.187202    0.071959   -0.217270
            31    0       6.060873      4.036545      6.043437     0.042401    0.344989    0.530240
            32    1       6.071429      6.053784      4.023188    -0.238879    0.301460    0.288439
 Energy
        -96.461159602160
 PlusStress:  xx          yy          zz          yz          xz          xy
      -158.27690  -258.04403  -159.02220    -0.16353    -0.05070    -0.52008
END_CFG

BEGIN_CFG
 Size
    32
 Supercell
         8.100000      0.000000      0.000000
         0.000000      8.100000      0.000000
         0.000000      0.000000      8.100000
 AtomData:  id type       cartes_x      cartes_y      cartes_z           fx          fy          fz
             1    0      -0.030197      0.008059     -0.018056     0.445449    0.063425    0.325857
             2    1       0.002090      2.041516      1.998030    -0.266398   -0.477520    0.196487
             3    0       2.073652     -0.007806      2.002433    -0.718078    0.119042    0.253914